/*--------------------------------*- C++ -*----------------------------------*\
| =========                 |                                                 |
| \\      /  F ield         | OpenFOAM: The Open Source CFD Toolbox           |
|  \\    /   O peration     | Version:  v1912                                 |
|   \\  /    A nd           | Website:  www.openfoam.com                      |
|    \\/     M anipulation  |                                                 |
\*---------------------------------------------------------------------------*/
FoamFile
{
    version     2.0;
    format      ascii;
    class       volScalarField;
    location    "0.3";
    object      p;
}
// * * * * * * * * * * * * * * * * * * * * * * * * * * * * * * * * * * * * * //

dimensions      [0 2 -2 0 0 0 0];


internalField   nonuniform List<scalar> 
12000
(
-7.41918e-08
-8.60893e-06
-1.11697e-05
-7.63887e-06
1.59252e-06
1.54979e-05
3.25806e-05
5.1184e-05
6.95942e-05
8.61727e-05
9.93926e-05
0.000107961
0.000110718
0.000106832
9.57531e-05
7.74478e-05
5.22833e-05
2.13168e-05
-1.38487e-05
-5.0848e-05
-8.70061e-05
-0.000119285
-0.000144746
-0.000160563
-0.000164548
-0.000155315
-0.000132743
-9.79819e-05
-5.35925e-05
-3.59286e-06
4.70421e-05
9.30674e-05
0.000129342
0.000151752
0.000157473
0.000145874
0.000118371
7.90717e-05
3.38227e-05
-1.03367e-05
-4.63631e-05
-6.78386e-05
-7.03475e-05
-5.19955e-05
-1.41669e-05
3.88909e-05
9.98722e-05
0.000160112
0.000210718
0.000244327
0.000256108
0.000245121
0.000214366
0.000170615
0.000123022
8.18237e-05
5.61542e-05
5.26222e-05
7.36689e-05
0.000117386
0.000177236
0.000243281
0.000304208
0.000349804
0.000372682
0.000370304
0.000345319
0.000305152
0.000260334
0.000222615
0.000202225
0.000205932
0.000235279
0.000286475
0.000350525
0.000415619
0.00046963
0.000503175
0.000511463
0.000495825
0.000462898
0.000423504
0.00038985
0.000373051
0.000380072
0.000412455
0.000465459
0.000529535
0.000592136
0.000641441
0.000668916
0.000671911
0.000653682
0.000623081
0.00059174
0.000571612
0.000571531
0.000595405
0.000640779
0.000699916
0.000761419
0.000813764
0.000847938
0.000860241
0.000852603
0.000832457
0.000810133
0.000796539
0.000799895
0.000823978
0.000866829
0.000921791
0.000979002
0.00102853
0.00106264
0.0010783
0.00107737
0.00106648
0.00105462
0.00105113
0.00106275
0.00109221
0.00113717
0.00119137
0.001246
0.00129267
0.00132523
0.00134206
0.00134575
0.00134295
0.00134171
0.00134983
0.00137203
0.00140931
0.00145815
0.00151232
0.00156407
0.00160714
0.00163777
0.00165644
0.00166679
0.00167521
0.0016881
0.00171086
0.00174556
0.00179132
0.0018439
0.0018979
0.0019475
0.00198901
0.00202095
0.00204529
0.00206575
0.0020877
0.00211551
0.00215246
0.00219873
0.00225264
0.00231007
0.0023669
0.00241905
0.00246482
0.00250411
0.00253956
0.00257445
0.00261299
0.00265781
0.0027106
0.00277063
0.00283561
0.00290208
0.00296748
0.00302938
0.0030878
0.0031435
0.00319931
0.0032577
0.00332167
0.00339235
0.00347042
0.00355439
0.00364291
0.00373351
0.00382522
0.00391704
0.00401025
0.00410612
0.00420769
0.00431705
0.0044371
0.00456896
0.00471433
0.00487328
0.00504722
0.00523671
0.00544458
0.00567302
0.00592637
0.006207
0.00651765
2.52188e-06
-8.40201e-06
-1.17693e-05
-8.42815e-06
1.10689e-06
1.51296e-05
3.2524e-05
5.11489e-05
6.97649e-05
8.63221e-05
9.97525e-05
0.00010831
0.000111256
0.000107287
9.62774e-05
7.77584e-05
5.25226e-05
2.12945e-05
-1.39365e-05
-5.11911e-05
-8.74499e-05
-0.000120015
-0.00014554
-0.000161537
-0.000165392
-0.000156126
-0.000133224
-9.8239e-05
-5.35578e-05
-3.48397e-06
4.73532e-05
9.34125e-05
0.000129875
0.000152196
0.000157932
0.000146048
0.000118384
7.87438e-05
3.33068e-05
-1.1127e-05
-4.72029e-05
-6.8788e-05
-7.11041e-05
-5.25846e-05
-1.43382e-05
3.88786e-05
0.000100052
0.000160338
0.000211088
0.000244626
0.000256428
0.000245222
0.000214233
0.000170121
0.000122342
8.09147e-05
5.52797e-05
5.17831e-05
7.31959e-05
0.000117194
0.000177259
0.000243344
0.000304389
0.000349926
0.000372873
0.000370335
0.000345136
0.000304572
0.000259558
0.00022164
0.000201346
0.00020519
0.000234938
0.000286333
0.000350534
0.00041562
0.00046973
0.000503215
0.000511497
0.000495538
0.000462303
0.000422564
0.000388824
0.000372015
0.000379308
0.000411977
0.000465284
0.000529452
0.000592153
0.000641413
0.000668892
0.00067163
0.00065316
0.00062217
0.000590639
0.000570414
0.000570536
0.000594646
0.000640346
0.000699627
0.000761266
0.000813548
0.000847705
0.000859755
0.000851943
0.000831456
0.000808967
0.000795241
0.000798731
0.000822946
0.000866061
0.000921133
0.000978481
0.00102793
0.00106202
0.00107743
0.00107635
0.00106516
0.00105318
0.00104956
0.00106126
0.00109079
0.00113594
0.00119019
0.00124492
0.00129147
0.00132398
0.00134053
0.00134409
0.001341
0.00133967
0.00134765
0.00136992
0.0014072
0.00145617
0.0015103
0.00156208
0.00160495
0.00163548
0.00165385
0.00166405
0.00167218
0.00168499
0.00170757
0.00174227
0.0017879
0.00184049
0.00189429
0.00194379
0.00198497
0.00201674
0.00204069
0.00206098
0.0020826
0.00211035
0.00214707
0.00219333
0.002247
0.00230436
0.00236085
0.00241281
0.00245813
0.00249714
0.00253208
0.00256671
0.00260481
0.0026495
0.00270196
0.00276167
0.00282616
0.00289237
0.00295717
0.00301866
0.00307631
0.00313145
0.00318637
0.0032441
0.00330707
0.00337699
0.0034539
0.00353692
0.00362404
0.00371338
0.0038033
0.00389345
0.00398436
0.00407795
0.00417641
0.00428239
0.00439773
0.00452384
0.00466084
0.00480836
0.00496513
0.00512996
0.00530133
0.00547824
0.00565938
0.00584397
0.00603078
5.07758e-06
-8.92793e-06
-1.33607e-05
-1.01298e-05
2.55389e-08
1.45953e-05
3.26278e-05
5.16228e-05
7.06878e-05
8.74743e-05
0.000101242
0.0001099
0.000112966
0.000108842
9.76676e-05
7.87107e-05
5.30758e-05
2.12001e-05
-1.45676e-05
-5.2549e-05
-8.93553e-05
-0.000122506
-0.000148264
-0.000164375
-0.000167935
-0.000158241
-0.000134556
-9.8834e-05
-5.32338e-05
-2.43866e-06
4.91287e-05
9.55589e-05
0.000132242
0.000154318
0.000159625
0.000146917
0.000118479
7.78468e-05
3.15707e-05
-1.3657e-05
-5.00125e-05
-7.15704e-05
-7.33734e-05
-5.41185e-05
-1.48207e-05
3.93253e-05
0.00010141
0.000162214
0.000213254
0.000246573
0.000257908
0.000245832
0.000213952
0.00016876
0.00012017
7.81837e-05
5.25939e-05
4.95071e-05
7.18301e-05
0.000116807
0.000177918
0.000244687
0.000306167
0.000351626
0.000374243
0.000370944
0.000344882
0.00030323
0.000257402
0.000218964
0.000198809
0.000203202
0.000233905
0.000286234
0.000351342
0.00041693
0.00047125
0.000504436
0.000512154
0.000495233
0.00046105
0.000420388
0.000386199
0.000369396
0.000377283
0.00041079
0.00046512
0.000530048
0.000593279
0.000642576
0.00066974
0.00067168
0.000652311
0.000620315
0.000588127
0.00056762
0.000568077
0.000592838
0.000639485
0.000699554
0.000761815
0.000814237
0.0008482
0.000859574
0.000850952
0.000829545
0.000806427
0.000792363
0.000796048
0.000820736
0.000864639
0.000920391
0.000978306
0.00102789
0.00106182
0.00107664
0.00107484
0.00106283
0.00105029
0.00104634
0.00105819
0.00108808
0.0011339
0.0011887
0.00124388
0.00129048
0.00132278
0.00133875
0.0013416
0.00133776
0.00133593
0.00134364
0.00136607
0.00140368
0.00145319
0.00150769
0.00155974
0.00160248
0.00163266
0.00165037
0.00165989
0.00166734
0.00167976
0.00170212
0.00173696
0.00178279
0.00183571
0.00188962
0.00193911
0.00197994
0.00201119
0.00203442
0.00205404
0.00207502
0.00210239
0.00213886
0.00218513
0.0022388
0.00229619
0.00235247
0.0024041
0.00244876
0.00248704
0.00252107
0.00255493
0.00259227
0.00263644
0.00268841
0.00274777
0.00281178
0.0028775
0.00294149
0.00300205
0.00305843
0.00311222
0.00316557
0.00322179
0.00328312
0.00335146
0.0034266
0.00350779
0.00359267
0.00367951
0.00376631
0.0038529
0.00393948
0.00402805
0.00412039
0.004219
0.00432497
0.00443919
0.00456061
0.00468813
0.00481915
0.00495194
0.00508404
0.00521455
0.00534208
0.00546671
0.0055877
3.58095e-06
-1.04103e-05
-1.48131e-05
-1.12643e-05
-6.68871e-07
1.46013e-05
3.32873e-05
5.29724e-05
7.26163e-05
8.9996e-05
0.000104148
0.000113074
0.000116086
0.00011174
9.99511e-05
8.02369e-05
5.35362e-05
2.05759e-05
-1.64325e-05
-5.5529e-05
-9.33881e-05
-0.000127253
-0.000153437
-0.00016942
-0.000172438
-0.000161602
-0.000136519
-9.91246e-05
-5.19552e-05
3.11247e-07
5.29719e-05
0.000100128
0.000136907
0.000158507
0.000162582
0.000148287
0.000117968
7.5626e-05
2.77892e-05
-1.85408e-05
-5.54306e-05
-7.6621e-05
-7.74615e-05
-5.64709e-05
-1.52001e-05
4.09334e-05
0.000104563
0.00016641
0.000217728
0.00025057
0.000260554
0.000246676
0.000212732
0.000165708
0.000115672
7.29884e-05
4.74693e-05
4.54891e-05
6.95784e-05
0.000116665
0.000179695
0.000247946
0.000310098
0.00035542
0.000376967
0.000371998
0.000343871
0.00030036
0.000253057
0.000213979
0.000194003
0.000199621
0.000232148
0.000286495
0.000353322
0.000420101
0.000474651
0.000507217
0.000513416
0.00049465
0.00045849
0.000416328
0.000381274
0.000364636
0.000373592
0.000408853
0.000465101
0.000531687
0.000595889
0.000645325
0.000671657
0.000672113
0.00065078
0.000617037
0.000583565
0.000562691
0.000563683
0.00058981
0.000638181
0.000699917
0.000763311
0.000816142
0.000849572
0.000859744
0.000849391
0.000826346
0.000801966
0.000787419
0.000791398
0.000817157
0.000862473
0.000919679
0.000978606
0.0010286
0.00106208
0.00107586
0.00107256
0.00105911
0.00104543
0.00104104
0.0010531
0.0010839
0.00113089
0.00118692
0.00124288
0.00128972
0.00132149
0.00133641
0.00133785
0.00133271
0.0013299
0.00133729
0.00135998
0.00139842
0.00144891
0.00150434
0.00155682
0.00159949
0.00162892
0.00164551
0.0016537
0.00166004
0.00167168
0.00169387
0.00172897
0.00177546
0.00182901
0.00188341
0.00193288
0.00197323
0.00200349
0.00202552
0.00204386
0.00206383
0.00209052
0.00212679
0.00217313
0.00222709
0.00228463
0.00234082
0.00239188
0.00243561
0.00247257
0.0025052
0.00253764
0.00257386
0.00261712
0.00266853
0.00272737
0.00279091
0.00285584
0.00291877
0.00297775
0.00303223
0.00308374
0.00313471
0.00318842
0.00324735
0.0033132
0.00338584
0.00346417
0.00354583
0.00362869
0.00371076
0.00379152
0.00387122
0.0039515
0.00403413
0.00412114
0.00421349
0.0043115
0.004414
0.00451936
0.0046251
0.00472924
0.00482988
0.0049263
0.00501816
0.00510617
0.00519111
-2.25305e-06
-1.31495e-05
-1.58996e-05
-1.14142e-05
-3.76355e-07
1.54566e-05
3.47184e-05
5.52277e-05
7.56337e-05
9.38413e-05
0.000108528
0.000117799
0.000120647
0.000115851
0.000103075
8.20979e-05
5.37395e-05
1.90593e-05
-1.98461e-05
-6.06054e-05
-9.99719e-05
-0.000134703
-0.000161233
-0.000176721
-0.00017865
-0.000166009
-0.00013874
-9.88804e-05
-4.93385e-05
5.11022e-06
5.93447e-05
0.00010734
0.00014388
0.000164384
0.000166424
0.000149618
0.000116505
7.15716e-05
2.148e-05
-2.62782e-05
-6.37011e-05
-8.41627e-05
-8.29664e-05
-5.92208e-05
-1.5018e-05
4.4046e-05
0.000110054
0.000173412
0.000224725
0.000256373
0.000264039
0.000247266
0.0002102
0.000160413
0.000108323
6.48622e-05
3.99529e-05
4.00177e-05
6.69333e-05
0.000117165
0.000183052
0.000253457
0.000316535
0.00036133
0.000380853
0.000373013
0.000341711
0.000295389
0.000246015
0.000206252
0.000187077
0.000194806
0.000230127
0.000287529
0.000356918
0.0004253
0.000480014
0.000511313
0.00051501
0.000493262
0.000454154
0.000409816
0.000373805
0.00035773
0.000368519
0.000406491
0.000465599
0.000534653
0.000600201
0.000649603
0.000674415
0.000672389
0.00064814
0.00061179
0.000576592
0.000555382
0.000557416
0.000585709
0.000636688
0.000700937
0.000765992
0.000819275
0.000851731
0.000859878
0.000846912
0.000821384
0.000795195
0.000780046
0.000784671
0.00081216
0.000859702
0.000919123
0.000979562
0.00103003
0.00106273
0.00107478
0.00106918
0.00105351
0.0010382
0.00103323
0.00104582
0.00107809
0.00112697
0.00118484
0.00124198
0.00128904
0.00131991
0.00133312
0.00133241
0.00132529
0.00132112
0.00132815
0.00135142
0.0013912
0.00144328
0.0015001
0.00155324
0.00159568
0.00162393
0.00163875
0.00164495
0.00164962
0.00166023
0.00168227
0.00171795
0.00176552
0.00182014
0.00187526
0.0019247
0.00196428
0.00199304
0.00201322
0.00202968
0.00204821
0.00207401
0.00211012
0.00215675
0.00221124
0.0022691
0.00232519
0.00237543
0.00241775
0.00245277
0.00248332
0.00251374
0.00254836
0.00259044
0.00264111
0.00269938
0.0027623
0.00282622
0.00288761
0.00294435
0.00299606
0.00304433
0.00309191
0.00314217
0.00319777
0.00326029
0.00332954
0.00340405
0.00348127
0.00355868
0.00363419
0.00370702
0.00377747
0.00384709
0.00391775
0.00399138
0.004069
0.00415076
0.00423551
0.00432143
0.00440615
0.0044877
0.0045645
0.0046361
0.00470272
0.00476553
0.00482558
-1.08129e-05
-1.74188e-05
-1.73465e-05
-1.10843e-05
8.59853e-07
1.73305e-05
3.7124e-05
5.84499e-05
7.97101e-05
9.88583e-05
0.000114213
0.000123914
0.000126606
0.000121129
0.000107034
8.43041e-05
5.3685e-05
1.65673e-05
-2.48916e-05
-6.791e-05
-0.000109098
-0.000144888
-0.000171622
-0.000186314
-0.000186539
-0.000171407
-0.000141165
-9.79958e-05
-4.5284e-05
1.19544e-05
6.81223e-05
0.000116982
0.000152992
0.000171725
0.000170974
0.000150761
0.000113905
6.54804e-05
1.25612e-05
-3.67589e-05
-7.43865e-05
-9.34395e-05
-8.96631e-05
-6.23165e-05
-1.41495e-05
4.871e-05
0.00011763
0.000182562
0.000233845
0.000263764
0.000268206
0.000247418
0.000206144
0.000152795
9.83013e-05
5.4193e-05
3.04861e-05
3.33311e-05
6.40237e-05
0.00011843
0.000188038
0.000261069
0.000325008
0.000368781
0.000385527
0.000373833
0.000338252
0.000288214
0.000236432
0.000196103
0.000178236
0.000188871
0.000228037
0.000289498
0.000362184
0.000432413
0.000487016
0.000516339
0.000516627
0.000490784
0.000447803
0.000400754
0.000363795
0.000348741
0.00036217
0.000403853
0.000466832
0.000539021
0.000606133
0.000655166
0.000677757
0.000672245
0.000644054
0.000604305
0.000567073
0.000545689
0.000549348
0.00058065
0.000635222
0.000702751
0.000769862
0.000823469
0.000854414
0.000859661
0.000843106
0.000814256
0.000785821
0.000770085
0.000775817
0.000805792
0.000856465
0.00091884
0.000981195
0.00103206
0.00106351
0.00107302
0.00106422
0.00104557
0.00102821
0.00102268
0.0010362
0.00107062
0.00112218
0.0011825
0.00124109
0.00128822
0.00131768
0.00132841
0.00132474
0.001315
0.00130917
0.00131589
0.00134017
0.00138191
0.00143622
0.00149485
0.00154876
0.00159068
0.00161717
0.00162947
0.00163297
0.00163547
0.00164488
0.00166691
0.00170356
0.00175267
0.00180877
0.00186477
0.00191408
0.00195244
0.00197907
0.0019967
0.0020107
0.00202738
0.0020522
0.00208823
0.0021354
0.00219066
0.00224896
0.00230481
0.0023539
0.0023942
0.00242658
0.00245432
0.00248214
0.00251471
0.00255537
0.00260518
0.00266279
0.00272492
0.00278749
0.00284676
0.00290052
0.00294852
0.00299256
0.00303575
0.00308164
0.00313305
0.00319145
0.00325647
0.00332629
0.00339803
0.00346883
0.00353646
0.00360007
0.00366009
0.00371819
0.0037765
0.00383704
0.00390097
0.00396835
0.00403801
0.00410801
0.00417597
0.00423991
0.00429849
0.00435149
0.00439959
0.00444411
0.00448631
-2.03089e-05
-2.29782e-05
-1.99385e-05
-1.15024e-05
1.97766e-06
1.96451e-05
4.04476e-05
6.28086e-05
8.50615e-05
0.000105206
0.000121328
0.000131449
0.000133961
0.000127653
0.000111954
8.69979e-05
5.35682e-05
1.33292e-05
-3.1328e-05
-7.72281e-05
-0.000120681
-0.000157769
-0.000184677
-0.000198301
-0.000196345
-0.000178025
-0.000143944
-9.66094e-05
-3.99113e-05
2.07155e-05
7.91419e-05
0.000128855
0.000164133
0.00018063
0.000176364
0.000151825
0.000110322
5.76118e-05
1.34784e-06
-4.98192e-05
-8.74573e-05
-0.000104732
-9.76575e-05
-6.58484e-05
-1.27778e-05
5.46742e-05
0.000127077
0.000193832
0.000244879
0.000272516
0.000272991
0.000247214
0.000200772
0.000143056
8.58395e-05
4.11273e-05
1.90112e-05
2.53359e-05
6.07504e-05
0.000120285
0.0001944
0.000270452
0.000335256
0.000377593
0.000390888
0.000374381
0.000333587
0.000279067
0.000224468
0.000183586
0.000167464
0.000181811
0.00022584
0.000292278
0.000368917
0.0004412
0.000495457
0.000522159
0.00051807
0.000487099
0.000439404
0.00038917
0.000351252
0.000337654
0.000354573
0.000400987
0.000468766
0.000544673
0.000613473
0.000661789
0.000681423
0.000671426
0.000638321
0.000594476
0.000554949
0.00053359
0.0005395
0.00057472
0.000633823
0.000705314
0.000774758
0.000828483
0.000857303
0.000858717
0.000837604
0.000804665
0.000773634
0.000757413
0.000764799
0.000798089
0.00085279
0.000918792
0.000983367
0.00103446
0.00106407
0.00107016
0.00105725
0.0010349
0.00101518
0.00100918
0.00102415
0.00106146
0.00111647
0.00117977
0.00124001
0.00128693
0.00131436
0.00132175
0.00131431
0.00130136
0.00129365
0.00130027
0.00132607
0.00137042
0.00142755
0.00148832
0.00154298
0.00158397
0.00160804
0.00161703
0.00161715
0.00161704
0.00162516
0.0016474
0.00168545
0.00173655
0.00179446
0.0018514
0.00190032
0.00193693
0.00196075
0.00197515
0.00198615
0.00200066
0.00202444
0.00206054
0.00210849
0.00216468
0.00222345
0.00227883
0.00232628
0.0023639
0.00239293
0.00241717
0.00244185
0.00247199
0.00251102
0.00255983
0.00261666
0.00267776
0.00273857
0.00279512
0.0028451
0.00288849
0.00292739
0.00296529
0.00300601
0.00305253
0.00310621
0.00316645
0.00323102
0.00329669
0.00336031
0.00341955
0.00347356
0.00352302
0.00356987
0.00361653
0.00366521
0.00371717
0.00377244
0.00382974
0.00388696
0.00394168
0.00399191
0.00403649
0.00407546
0.00410974
0.00414086
0.00417031
-2.98279e-05
-2.95602e-05
-2.38981e-05
-1.31198e-05
2.41481e-06
2.19266e-05
4.43977e-05
6.82736e-05
9.18578e-05
0.000113107
0.000130021
0.000140488
0.000142723
0.000135416
0.000117884
9.0297e-05
5.35717e-05
9.61382e-06
-3.88875e-05
-8.83295e-05
-0.000134604
-0.000173374
-0.00020058
-0.000212981
-0.000208385
-0.00018622
-0.000147449
-9.50408e-05
-3.34848e-05
3.12247e-05
9.23778e-05
0.0001431
0.000177488
0.000191292
0.000182774
0.000153003
0.000105933
4.80906e-05
-1.2137e-05
-6.54654e-05
-0.000103128
-0.000118257
-0.000107166
-7.00258e-05
-1.11135e-05
6.17719e-05
0.000138296
0.000207137
0.000257817
0.000282692
0.000278438
0.000246762
0.000194281
0.000131477
7.10457e-05
2.56155e-05
5.3589e-06
1.58138e-05
5.68447e-05
0.000122439
0.000201858
0.000281422
0.000347205
0.000387809
0.000396957
0.000374743
0.000327837
0.00026807
0.000210172
0.00016865
0.000154655
0.000173459
0.00022329
0.000295602
0.000376868
0.000451485
0.000505241
0.000528694
0.000519327
0.000482258
0.000429035
0.000375104
0.000336149
0.000324402
0.000345608
0.000397699
0.000471154
0.000551353
0.000622005
0.00066929
0.000685238
0.00066982
0.000630902
0.00058229
0.000540178
0.000519013
0.000527805
0.000567816
0.000632325
0.000708416
0.000780438
0.00083406
0.000860091
0.000856765
0.000830183
0.000792457
0.000758506
0.00074193
0.000751535
0.000788956
0.000848513
0.000918758
0.000985791
0.00103689
0.00106402
0.00106584
0.00104796
0.00102126
0.000998889
0.000992566
0.00100951
0.00105045
0.0011096
0.00117635
0.00123831
0.0012847
0.00130943
0.00131267
0.0013007
0.00128402
0.00127431
0.00128104
0.00130887
0.00135644
0.0014169
0.00148004
0.00153532
0.00157492
0.00159588
0.00160082
0.00159697
0.0015939
0.00160069
0.00162335
0.00166317
0.00171665
0.00177659
0.00183443
0.00188264
0.00191695
0.00193732
0.00194785
0.00195537
0.00196746
0.00199017
0.00202644
0.00207534
0.00213254
0.00219169
0.00224629
0.00229159
0.00232589
0.00235088
0.002371
0.00239204
0.00241943
0.00245663
0.00250429
0.00256018
0.00261996
0.0026786
0.00273183
0.00277733
0.00281532
0.0028483
0.00288022
0.00291522
0.00295642
0.00300509
0.00306035
0.00311954
0.00317907
0.00323551
0.00328644
0.00333113
0.00337053
0.00340692
0.00344305
0.00348136
0.00352318
0.00356849
0.00361586
0.00366301
0.0037074
0.00374705
0.00378094
0.00380923
0.0038331
0.00385431
0.00387456
-3.9052e-05
-3.68197e-05
-2.90246e-05
-1.59592e-05
1.92564e-06
2.37881e-05
4.85174e-05
7.4476e-05
9.98696e-05
0.000122551
0.000140316
0.00015106
0.000152893
0.000144394
0.000124796
9.42699e-05
5.3858e-05
5.67817e-06
-4.72386e-05
-0.000100844
-0.000150525
-0.000191469
-0.000219268
-0.000230476
-0.00022296
-0.000196411
-0.000152193
-9.38208e-05
-2.6462e-05
4.31711e-05
0.000107703
0.000159769
0.000193232
0.000203928
0.000190468
0.000154565
0.000100951
3.70505e-05
-2.78875e-05
-8.38125e-05
-0.00012157
-0.000134238
-0.000118482
-7.51389e-05
-9.42142e-06
6.98077e-05
0.000151152
0.000222433
0.000272735
0.000294457
0.000284783
0.000246334
0.000186895
0.000118161
5.39262e-05
7.52447e-06
-1.06837e-05
4.47897e-06
5.1988e-05
0.00012459
0.000210179
0.000293848
0.000360828
0.000399469
0.000403866
0.000375094
0.000321144
0.000255299
0.000193538
0.000151201
0.000139614
0.000163539
0.000220053
0.000299144
0.00038576
0.000463091
0.000516279
0.00053599
0.000520547
0.000476458
0.000416851
0.000358624
0.000318441
0.000308822
0.000334971
0.000393596
0.000473577
0.0005587
0.000631464
0.000677509
0.000689176
0.000667504
0.000621908
0.00056781
0.000522742
0.000501863
0.000514052
0.000559617
0.000630345
0.00071167
0.000786561
0.000839909
0.000862594
0.000853724
0.000820836
0.000777638
0.000740414
0.000723551
0.000735833
0.000778077
0.000843224
0.000918279
0.000988007
0.00103893
0.00106306
0.00105985
0.00103624
0.00100459
0.000979277
0.000972723
0.000992054
0.00103719
0.00110107
0.00117166
0.0012354
0.00128097
0.00130243
0.00130081
0.00128367
0.00126283
0.00125096
0.00125797
0.00128823
0.00133948
0.00140364
0.00146931
0.00152507
0.00156286
0.00158012
0.0015804
0.00157205
0.00156571
0.00157109
0.0015943
0.00163616
0.00169224
0.00175433
0.00181298
0.00186019
0.00189172
0.00190808
0.00191421
0.00191785
0.00192726
0.0019488
0.00198526
0.00203514
0.00209335
0.00215272
0.00220621
0.00224891
0.00227933
0.0022997
0.00231516
0.00233214
0.00235644
0.00239159
0.00243793
0.00249268
0.00255088
0.00260699
0.00265642
0.00269691
0.00272894
0.0027555
0.00278101
0.00281
0.00284574
0.0028894
0.00293977
0.00299381
0.00304751
0.00309715
0.00314027
0.00317626
0.0032064
0.00323333
0.00326016
0.00328956
0.00332296
0.00336024
0.00339981
0.00343918
0.0034757
0.00350729
0.00353296
0.00355304
0.00356896
0.00358275
0.00359633
-4.79809e-05
-4.44612e-05
-3.49421e-05
-1.97542e-05
5.60463e-07
2.50444e-05
5.24271e-05
8.09092e-05
0.000108512
0.00013293
0.000151865
0.000163026
0.000164418
0.000154572
0.000132707
9.90017e-05
5.45894e-05
1.80086e-06
-5.59849e-05
-0.000114274
-0.000167904
-0.000211541
-0.000240355
-0.000250631
-0.000240202
-0.000208935
-0.000158732
-9.36373e-05
-1.95689e-05
5.59229e-05
0.000124654
0.000178626
0.00021137
0.000218787
0.000199849
0.000156994
9.58359e-05
2.48577e-05
-4.56559e-05
-0.000104787
-0.000142879
-0.000152942
-0.000131997
-8.16356e-05
-8.1435e-06
7.83962e-05
0.000165362
0.000239603
0.000289671
0.000307991
0.000292287
0.000246196
0.000178808
0.000103218
3.44734e-05
-1.32414e-05
-2.93105e-05
-8.95165e-06
4.58252e-05
0.000126373
0.00021904
0.000307503
0.000376016
0.000412608
0.000411774
0.000375647
0.000313715
0.000240889
0.000174608
0.000131162
0.000122121
0.000151685
0.00021568
0.000302437
0.000395195
0.000475747
0.000528482
0.000544147
0.000521971
0.000469986
0.000403099
0.000339871
0.000298106
0.000290684
0.000322234
0.000388129
0.000475461
0.000566224
0.000641511
0.000686323
0.000693313
0.000664689
0.000611569
0.000551214
0.000502693
0.000481997
0.00049787
0.000549578
0.00062725
0.000714472
0.000792637
0.000845748
0.00086475
0.000849713
0.000809763
0.000760394
0.000719437
0.000702164
0.000717347
0.000764898
0.000836241
0.000916639
0.000989373
0.00104012
0.00106094
0.00105215
0.00102217
0.000984991
0.000956381
0.000949499
0.000971391
0.00102109
0.00109011
0.00116487
0.00123053
0.00127514
0.00129299
0.00128603
0.0012632
0.00123776
0.00122349
0.00123075
0.0012636
0.00131879
0.0013869
0.00145521
0.00151139
0.00154713
0.0015603
0.00155545
0.00154215
0.00153219
0.00153597
0.00155969
0.00160363
0.00166241
0.0017267
0.00178609
0.0018321
0.00186055
0.0018725
0.0018738
0.00187316
0.00187957
0.00189973
0.00193625
0.00198703
0.00204613
0.00210557
0.00215774
0.0021975
0.00222363
0.00223893
0.00224929
0.00226179
0.00228266
0.00231548
0.00236029
0.00241371
0.00247017
0.00252352
0.00256894
0.00260413
0.00262993
0.00264981
0.00266874
0.00269164
0.00272197
0.00276081
0.00280664
0.00285597
0.00290438
0.00294788
0.0029839
0.00301201
0.0030338
0.0030523
0.00307101
0.00309286
0.00311934
0.00315029
0.00318391
0.00321747
0.00324806
0.00327349
0.0032928
0.00330648
0.00331622
0.00332432
0.00333294
-5.67318e-05
-5.23017e-05
-4.13295e-05
-2.41828e-05
-1.47708e-06
2.57094e-05
5.59372e-05
8.72066e-05
0.000117346
0.000143834
0.000164204
0.00017596
0.000177014
0.000165805
0.000141566
0.000104511
5.58883e-05
-1.76951e-06
-6.47582e-05
-0.000128126
-0.000186158
-0.000232974
-0.000263271
-0.000273019
-0.00025993
-0.000223992
-0.000167493
-9.51678e-05
-1.36805e-05
6.8549e-05
0.000142369
0.000199061
0.000231653
0.000235955
0.000211301
0.000160952
9.13502e-05
1.2236e-05
-6.48897e-05
-0.000128093
-0.000167048
-0.000174601
-0.000148185
-9.017e-05
-8.00508e-06
8.68447e-05
0.000180395
0.000258332
0.000308557
0.000323433
0.00030127
0.000246758
0.00017044
8.69973e-05
1.29222e-05
-3.66053e-05
-5.06557e-05
-2.48246e-05
3.78445e-05
0.000127206
0.000227885
0.000321958
0.000392526
0.000427212
0.000420874
0.000376748
0.00030594
0.000225191
0.000153593
0.000108553
0.000101952
0.000137453
0.000209573
0.000304841
0.000404602
0.000489048
0.000541681
0.000553244
0.00052388
0.000463227
0.000388162
0.000319105
0.000275195
0.000269758
0.000306913
0.000380631
0.000476088
0.000573273
0.000651685
0.000695541
0.000697729
0.00066164
0.000600236
0.000532811
0.000480164
0.000459256
0.000478791
0.00053699
0.000622215
0.000716028
0.00079805
0.000851252
0.000866542
0.000844961
0.000797315
0.000741061
0.000695743
0.000677661
0.000695645
0.000748714
0.000826677
0.000912935
0.000989114
0.00103994
0.00105743
0.00104278
0.00100596
0.000962698
0.000930279
0.00092272
0.000947033
0.00100138
0.00107578
0.00115501
0.00122285
0.00126665
0.00128083
0.00126827
0.00123934
0.00120884
0.00119175
0.00119897
0.00123426
0.00129341
0.00136561
0.00143673
0.00149347
0.00152716
0.00153609
0.00152579
0.00150715
0.00149312
0.0014949
0.00151883
0.00156469
0.00162613
0.00169263
0.00175282
0.00179763
0.00182288
0.00183019
0.00182633
0.00182099
0.00182399
0.00184238
0.00187865
0.00193011
0.00198998
0.00204942
0.00210016
0.00213686
0.00215849
0.00216843
0.00217331
0.00218094
0.002198
0.00222817
0.0022712
0.00232317
0.00237782
0.00242845
0.00246986
0.00249979
0.00251935
0.00253254
0.00254488
0.00256175
0.00258683
0.00262113
0.00266285
0.00270805
0.00275189
0.00279002
0.00281982
0.00284096
0.00285534
0.00286642
0.00287809
0.00289356
0.00291445
0.00294049
0.00296966
0.00299891
0.00302508
0.00304582
0.00306016
0.00306876
0.00307356
0.00307715
0.00308191
-6.53424e-05
-6.02381e-05
-4.79833e-05
-2.89943e-05
-3.97081e-06
2.58954e-05
5.89985e-05
9.31723e-05
0.000126017
0.000154787
0.000176784
0.000189335
0.000190205
0.000177749
0.000151172
0.00011074
5.78143e-05
-4.8537e-06
-7.32487e-05
-0.000141965
-0.000204746
-0.000255154
-0.000287384
-0.000297061
-0.000281716
-0.000241407
-0.000178705
-9.89171e-05
-9.57178e-06
8.00399e-05
0.000159783
0.000220088
0.000253367
0.000255267
0.000225284
0.000167035
8.83554e-05
2.12853e-07
-8.46554e-05
-0.000153027
-0.000193728
-0.000199285
-0.000167455
-0.00010149
-9.98838e-06
9.4116e-05
0.000195309
0.000277929
0.000329038
0.000340802
0.000312083
0.000248637
0.000162554
7.02357e-05
-1.01642e-05
-6.23062e-05
-7.47833e-05
-4.355e-05
2.7376e-05
0.000126266
0.000235894
0.000336529
0.00040993
0.000443138
0.000431328
0.000378806
0.000298368
0.000208738
0.000130874
8.35028e-05
7.89423e-05
0.000120383
0.000201039
0.000305557
0.000413209
0.000502395
0.00055553
0.000563246
0.000526514
0.00045662
0.000372529
0.000296724
0.000249877
0.000245924
0.000288565
0.000370408
0.000474628
0.000579044
0.000661362
0.000704821
0.000702397
0.000658609
0.000588317
0.000512998
0.000455381
0.00043358
0.000456413
0.00052114
0.000614334
0.00071541
0.000802036
0.000855947
0.000867843
0.000839644
0.000783856
0.000720015
0.000669554
0.00064998
0.000670323
0.000728793
0.000813593
0.000906175
0.000986374
0.00103779
0.00105226
0.00103177
0.000987789
0.000937897
0.000901005
0.000892139
0.000918407
0.000977184
0.00105705
0.00114105
0.00121151
0.00125491
0.00126566
0.00124748
0.00121215
0.00117608
0.00115555
0.00116212
0.00119942
0.00126234
0.00133867
0.00141288
0.0014705
0.00150242
0.0015072
0.00149131
0.00146692
0.00144826
0.00144743
0.00147103
0.00151844
0.00158237
0.00165115
0.00171231
0.00175611
0.00177826
0.00178088
0.00177159
0.00176112
0.00176016
0.00177624
0.0018118
0.00186365
0.00192417
0.00198363
0.00203305
0.00206678
0.0020839
0.00208833
0.00208744
0.0020898
0.00210263
0.0021298
0.00217083
0.0022213
0.00227425
0.00232237
0.00236007
0.00238501
0.00239856
0.00240521
0.00241107
0.00242203
0.00244204
0.00247211
0.00251018
0.0025519
0.00259193
0.00262561
0.00265012
0.00266524
0.00267317
0.00267777
0.00268335
0.00269344
0.00270978
0.002732
0.00275783
0.00278393
0.00280682
0.00282399
0.00283444
0.00283896
0.00283973
0.00283962
0.00284126
-7.38274e-05
-6.81737e-05
-5.47413e-05
-3.40146e-05
-6.76287e-06
2.57005e-05
6.16284e-05
9.86864e-05
0.000134265
0.000165401
0.000189154
0.000202648
0.00020349
0.000189959
0.000161191
0.000117493
6.03177e-05
-7.36682e-06
-8.12422e-05
-0.000155441
-0.000223192
-0.000277496
-0.00031206
-0.00032211
-0.000304991
-0.000260761
-0.000192229
-0.000105172
-7.81409e-06
8.95516e-05
0.000175836
0.000240547
0.000275408
0.000275685
0.000240927
0.000175421
8.77139e-05
-1.00556e-05
-0.000103591
-0.000178326
-0.000222009
-0.000226627
-0.000190017
-0.000116215
-1.51042e-05
9.89554e-05
0.000208823
0.000297306
0.000350394
0.000359848
0.000324893
0.0002524
0.000155984
5.38516e-05
-3.40224e-05
-8.988e-05
-0.000101615
-6.53694e-05
1.382e-05
0.000122693
0.000242089
0.000350305
0.000427536
0.000460024
0.000443098
0.000382118
0.000291547
0.000192177
0.000107017
5.63388e-05
5.31155e-05
0.000100154
0.000189429
0.000303701
0.000420073
0.000514956
0.000569452
0.000573881
0.000529955
0.000450543
0.000356745
0.000273259
0.000222504
0.000219247
0.000266911
0.000356844
0.000470229
0.000582622
0.000669725
0.000713584
0.000707066
0.000655684
0.000576147
0.000492199
0.000428669
0.000405058
0.000430494
0.000501436
0.000602748
0.00071165
0.00080369
0.000859143
0.000868281
0.000833721
0.000769596
0.000697558
0.000641086
0.000619103
0.000641058
0.000704507
0.000796129
0.000895404
0.000980265
0.00103299