/*--------------------------------*- C++ -*----------------------------------*\
| =========                 |                                                 |
| \\      /  F ield         | OpenFOAM: The Open Source CFD Toolbox           |
|  \\    /   O peration     | Version:  v1912                                 |
|   \\  /    A nd           | Website:  www.openfoam.com                      |
|    \\/     M anipulation  |                                                 |
\*---------------------------------------------------------------------------*/
FoamFile
{
    version     2.0;
    format      ascii;
    class       surfaceScalarField;
    location    "0.3";
    object      phi;
}
// * * * * * * * * * * * * * * * * * * * * * * * * * * * * * * * * * * * * * //

dimensions      [0 3 -1 0 0 0 0];
oriented        oriented;


internalField   nonuniform List<scalar> 
23660
(
3.87646e-06
8.30892e-10
3.87653e-06
-9.82339e-10
3.87652e-06
8.21934e-10
3.87647e-06
-8.93172e-10
3.87643e-06
8.53742e-10
3.87636e-06
-8.31709e-10
3.87632e-06
8.6665e-10
3.87627e-06
-8.06052e-10
3.87625e-06
8.51916e-10
3.87624e-06
-7.96022e-10
3.87624e-06
8.22135e-10
3.87626e-06
-8.0053e-10
3.87628e-06
7.78414e-10
3.87632e-06
-8.15452e-10
3.87636e-06
7.29529e-10
3.87642e-06
-8.29275e-10
3.87647e-06
6.82276e-10
3.87652e-06
-8.46245e-10
3.87655e-06
6.52342e-10
3.87659e-06
-8.3756e-10
3.8766e-06
6.47195e-10
3.87662e-06
-8.00468e-10
3.8766e-06
6.65036e-10
3.87659e-06
-7.43204e-10
3.87654e-06
6.93498e-10
3.87651e-06
-6.83901e-10
3.87644e-06
7.18413e-10
3.8764e-06
-6.3079e-10
3.87634e-06
7.39392e-10
3.87632e-06
-6.01921e-10
3.87627e-06
7.28302e-10
3.87626e-06
-5.99236e-10
3.87623e-06
6.93174e-10
3.87624e-06
-6.13351e-10
3.87623e-06
6.49337e-10
3.87626e-06
-6.3073e-10
3.87624e-06
6.0243e-10
3.87626e-06
-6.45504e-10
3.87624e-06
5.86739e-10
3.87624e-06
-6.24541e-10
3.8762e-06
5.97248e-10
3.87619e-06
-5.8138e-10
3.87612e-06
6.20688e-10
3.87609e-06
-5.33052e-10
3.87602e-06
6.50428e-10
3.876e-06
-4.96815e-10
3.87594e-06
6.53958e-10
3.87593e-06
-4.87631e-10
3.87588e-06
6.3207e-10
3.87588e-06
-4.95391e-10
3.87584e-06
5.97387e-10
3.87585e-06
-5.13768e-10
3.87581e-06
5.561e-10
3.87582e-06
-5.20453e-10
3.87577e-06
5.4694e-10
3.87577e-06
-4.97058e-10
3.8757e-06
5.59016e-10
3.87569e-06
-4.58717e-10
3.87561e-06
5.84341e-10
3.87559e-06
-4.19421e-10
3.87551e-06
5.97856e-10
3.8755e-06
-4.02355e-10
3.87543e-06
5.86956e-10
3.87542e-06
-4.02812e-10
3.87536e-06
5.60758e-10
3.87535e-06
-4.14719e-10
3.87529e-06
5.2589e-10
3.87529e-06
-4.21102e-10
3.87523e-06
5.17005e-10
3.87522e-06
-4.03116e-10
3.87514e-06
5.27212e-10
3.87512e-06
-3.72093e-10
3.87504e-06
5.49312e-10
3.87502e-06
-3.44164e-10
3.87494e-06
5.57203e-10
3.87492e-06
-3.33304e-10
3.87484e-06
5.46408e-10
3.87483e-06
-3.36306e-10
3.87475e-06
5.21009e-10
3.87474e-06
-3.45622e-10
3.87467e-06
5.01087e-10
3.87465e-06
-3.41656e-10
3.87457e-06
5.0223e-10
3.87455e-06
-3.21254e-10
3.87446e-06
5.18452e-10
3.87443e-06
-2.94931e-10
3.87434e-06
5.3167e-10
3.87432e-06
-2.80429e-10
3.87422e-06
5.2936e-10
3.8742e-06
-2.78042e-10
3.87411e-06
5.13396e-10
3.87409e-06
-2.81908e-10
3.874e-06
4.94281e-10
3.87398e-06
-2.82337e-10
3.87389e-06
4.91066e-10
3.87386e-06
-2.68022e-10
3.87376e-06
5.02981e-10
3.87373e-06
-2.46755e-10
3.87363e-06
5.14341e-10
3.8736e-06
-2.32465e-10
3.87349e-06
5.15464e-10
3.87346e-06
-2.27512e-10
3.87335e-06
5.06095e-10
3.87333e-06
-2.2734e-10
3.87322e-06
4.93465e-10
3.87319e-06
-2.25093e-10
3.87308e-06
4.90368e-10
3.87305e-06
-2.13862e-10
3.87293e-06
4.98689e-10
3.8729e-06
-1.97707e-10
3.87278e-06
5.07989e-10
3.87274e-06
-1.85258e-10
3.87262e-06
5.10802e-10
3.87258e-06
-1.79094e-10
3.87246e-06
5.06207e-10
3.87242e-06
-1.76068e-10
3.87229e-06
4.99387e-10
3.87226e-06
-1.71351e-10
3.87213e-06
4.98807e-10
3.87209e-06
-1.61105e-10
3.87196e-06
5.06201e-10
3.87191e-06
-1.47906e-10
3.87177e-06
5.15016e-10
3.87173e-06
-1.37014e-10
3.87158e-06
5.19519e-10
3.87154e-06
-1.30189e-10
3.87139e-06
5.18819e-10
3.87134e-06
-1.25072e-10
3.8712e-06
5.16894e-10
3.87115e-06
-1.18321e-10
3.871e-06
5.19794e-10
3.87094e-06
-1.07877e-10
3.87079e-06
5.28439e-10
3.87073e-06
-9.59495e-11
3.87057e-06
5.37932e-10
3.87051e-06
-8.59435e-11
3.87035e-06
5.44247e-10
3.87028e-06
-7.82864e-11
3.87012e-06
5.47373e-10
3.87005e-06
-7.09367e-11
3.86988e-06
5.50841e-10
3.86982e-06
-6.16935e-11
3.86964e-06
5.58443e-10
3.86957e-06
-5.02209e-11
3.86938e-06
5.70029e-10
3.86931e-06
-3.83982e-11
3.86912e-06
5.82227e-10
3.86904e-06
-2.78724e-11
3.86884e-06
5.92582e-10
3.86877e-06
-1.82795e-11
3.86856e-06
6.01508e-10
3.86848e-06
-8.29947e-12
3.86827e-06
6.11404e-10
3.86819e-06
4.34107e-12
3.86797e-06
6.23948e-10
3.86788e-06
2.21771e-11
3.86765e-06
6.38736e-10
3.86756e-06
3.88304e-11
3.86732e-06
6.54065e-10
3.86722e-06
5.48767e-11
3.86698e-06
6.68708e-10
3.86688e-06
7.10181e-11
3.86662e-06
6.83516e-10
3.86651e-06
8.8387e-11
3.86625e-06
7.00247e-10
3.86614e-06
1.07564e-10
3.86586e-06
7.1949e-10
3.86574e-06
1.27945e-10
3.86545e-06
7.40381e-10
3.86532e-06
1.49241e-10
3.86502e-06
7.61926e-10
3.86488e-06
1.70759e-10
3.86456e-06
7.84054e-10
3.86441e-06
1.93469e-10
3.86408e-06
8.08075e-10
3.86391e-06
2.18576e-10
3.86356e-06
8.35552e-10
3.86338e-06
2.46954e-10
3.86301e-06
8.67248e-10
3.86281e-06
2.78868e-10
3.86242e-06
9.03045e-10
3.86219e-06
3.14432e-10
3.86178e-06
9.42894e-10
3.86153e-06
3.54303e-10
3.86109e-06
9.87715e-10
3.86081e-06
4.00056e-10
3.86034e-06
1.03975e-09
3.86003e-06
4.54408e-10
3.85951e-06
1.10276e-09
3.85916e-06
5.21975e-10
3.85858e-06
1.18425e-09
3.85816e-06
6.14316e-10
3.85749e-06
1.30676e-09
3.85696e-06
7.63238e-10
3.85611e-06
1.52115e-09
3.85537e-06
1.02938e-09
3.8542e-06
1.90285e-09
3.85308e-06
1.50479e-09
3.85138e-06
2.55654e-09
1.95994e-09
3.85011e-06
4.18596e-06
7.29597e-10
4.18581e-06
-8.31815e-10
4.18583e-06
8.01522e-10
4.18565e-06
-7.15107e-10
4.18567e-06
8.3851e-10
4.18551e-06
-6.74797e-10
4.18556e-06
8.21012e-10
4.18543e-06
-6.77337e-10
4.18551e-06
7.71096e-10
4.18542e-06
-7.0488e-10
4.18554e-06
7.00944e-10
4.18549e-06
-7.54454e-10
4.18565e-06
6.18006e-10
4.18565e-06
-8.1539e-10
4.18584e-06
5.41494e-10
4.18587e-06
-8.59203e-10
4.18606e-06
4.90252e-10
4.18608e-06
-8.6557e-10
4.18625e-06
4.84727e-10
4.18623e-06
-8.19868e-10
4.18635e-06
5.27282e-10
4.18627e-06
-7.22889e-10
4.18633e-06
6.11117e-10
4.18619e-06
-6.05457e-10
4.18618e-06
7.01272e-10
4.18601e-06
-5.05879e-10
4.18597e-06
7.57772e-10
4.18579e-06
-4.50836e-10
4.18577e-06
7.58078e-10
4.18562e-06
-4.55938e-10
4.18565e-06
6.98176e-10
4.18556e-06
-5.06807e-10
4.18565e-06
6.05794e-10
4.18561e-06
-5.76789e-10
4.18573e-06
5.25536e-10
4.18572e-06
-6.18772e-10
4.18584e-06
4.86766e-10
4.1858e-06
-6.08817e-10
4.18588e-06
5.06766e-10
4.18579e-06
-5.3876e-10
4.18582e-06
5.72899e-10
4.18568e-06
-4.46814e-10
4.18566e-06
6.44344e-10
4.1855e-06
-3.76886e-10
4.18548e-06
6.76778e-10
4.18534e-06
-3.59197e-10
4.18535e-06
6.46528e-10
4.18525e-06
-3.91045e-10
4.1853e-06
5.79e-10
4.18525e-06
-4.45243e-10
4.18534e-06
5.16551e-10
4.1853e-06
-4.76608e-10
4.18536e-06
4.90061e-10
4.1853e-06
-4.59995e-10
4.18533e-06
5.15799e-10
4.18523e-06
-3.9556e-10
4.18522e-06
5.73516e-10
4.18509e-06
-3.25819e-10
4.18505e-06
6.18112e-10
4.18492e-06
-2.88996e-10
4.18491e-06
6.10298e-10
4.18481e-06
-2.99275e-10
4.18483e-06
5.63874e-10
4.18476e-06
-3.34581e-10
4.18481e-06
5.13655e-10
4.18475e-06
-3.5946e-10
4.18479e-06
4.87486e-10
4.18472e-06
-3.48305e-10
4.18473e-06
5.06182e-10
4.18462e-06
-2.97948e-10
4.1846e-06
5.50994e-10
4.18447e-06
-2.45305e-10
4.18444e-06
5.81051e-10
4.18432e-06
-2.2243e-10
4.18431e-06
5.68307e-10
4.18421e-06
-2.33916e-10
4.18422e-06
5.31649e-10
4.18415e-06
-2.59736e-10
4.18417e-06
4.98363e-10
4.1841e-06
-2.70126e-10
4.1841e-06
4.92951e-10
4.18401e-06
-2.47592e-10
4.18399e-06
5.20823e-10
4.18387e-06
-2.04509e-10
4.18384e-06
5.56199e-10
4.18371e-06
-1.71327e-10
4.18368e-06
5.62293e-10
4.18357e-06
-1.69078e-10
4.18356e-06
5.41538e-10
4.18347e-06
-1.8519e-10
4.18346e-06
5.14786e-10
4.18338e-06
-1.97434e-10
4.18337e-06
5.03648e-10
4.18328e-06
-1.87603e-10
4.18325e-06
5.19901e-10
4.18313e-06
-1.5487e-10
4.18309e-06
5.49158e-10
4.18296e-06
-1.24128e-10
4.18292e-06
5.59764e-10
4.1828e-06
-1.15807e-10
4.18277e-06
5.48321e-10
4.18267e-06
-1.24038e-10
4.18264e-06
5.30022e-10
4.18255e-06
-1.30918e-10
4.18252e-06
5.22207e-10
4.18241e-06
-1.21681e-10
4.18237e-06
5.33804e-10
4.18225e-06
-9.58615e-11
4.1822e-06
5.55072e-10
4.18207e-06
-7.06709e-11
4.18201e-06
5.65156e-10
4.18189e-06
-6.02233e-11
4.18184e-06
5.59862e-10
4.18172e-06
-6.19715e-11
4.18168e-06
5.49453e-10
4.18156e-06
-6.26526e-11
4.18152e-06
5.46855e-10
4.1814e-06
-5.17327e-11
4.18134e-06
5.57744e-10
4.18121e-06
-2.9944e-11
4.18114e-06
5.74471e-10
4.181e-06
-9.26464e-12
4.18093e-06
5.83589e-10
4.18079e-06
1.87147e-12
4.18073e-06
5.82237e-10
4.18059e-06
5.49649e-12
4.18053e-06
5.78482e-10
4.1804e-06
9.79915e-12
4.18033e-06
5.82096e-10
4.18019e-06
2.21721e-11
4.18012e-06
5.95343e-10
4.17997e-06
4.24253e-11
4.17988e-06
6.11354e-10
4.17973e-06
6.09714e-11
4.17964e-06
6.21758e-10
4.17949e-06
7.23073e-11
4.1794e-06
6.25704e-10
4.17925e-06
7.91889e-11
4.17916e-06
6.29469e-10
4.17901e-06
8.8644e-11
4.17892e-06
6.39303e-10
4.17875e-06
1.04924e-10
4.17865e-06
6.55546e-10
4.17848e-06
1.25393e-10
4.17837e-06
6.72864e-10
4.17819e-06
1.43943e-10
4.17809e-06
6.86375e-10
4.1779e-06
1.58005e-10
4.1778e-06
6.96793e-10
4.17761e-06
1.70629e-10
4.1775e-06
7.08867e-10
4.17731e-06
1.86741e-10
4.17719e-06
7.2636e-10
4.17699e-06
2.08115e-10
4.17686e-06
7.48748e-10
4.17665e-06
2.32429e-10
4.17652e-06
7.71856e-10
4.1763e-06
2.55207e-10
4.17616e-06
7.92843e-10
4.17594e-06
2.75851e-10
4.1758e-06
8.13134e-10
4.17557e-06
2.97197e-10
4.17542e-06
8.36087e-10
4.17519e-06
3.22339e-10
4.17502e-06
8.63614e-10
4.17478e-06
3.51709e-10
4.1746e-06
8.94794e-10
4.17435e-06
3.83314e-10
4.17416e-06
9.27239e-10
4.1739e-06
4.15216e-10
4.1737e-06
9.60071e-10
4.17342e-06
4.47698e-10
4.17321e-06
9.94972e-10
4.17292e-06
4.83396e-10
4.17269e-06
1.03474e-09
4.17239e-06
5.24652e-10
4.17214e-06
1.08082e-09
4.17182e-06
5.71981e-10
4.17155e-06
1.13297e-09
4.1712e-06
6.24804e-10
4.17092e-06
1.19084e-09
4.17055e-06
6.83463e-10
4.17024e-06
1.25583e-09
4.16984e-06
7.50442e-10
4.1695e-06
1.33128e-09
4.16907e-06
8.29656e-10
4.16868e-06
1.42208e-09
4.16821e-06
9.29649e-10
4.16777e-06
1.54281e-09
4.16722e-06
1.06617e-09
4.1667e-06
1.71165e-09
4.16606e-06
1.25553e-09
4.16542e-06
1.9449e-09
4.16466e-06
1.51781e-09
4.16392e-06
2.26201e-09
4.16308e-06
1.87562e-09
4.1623e-06
2.67974e-09
4.16146e-06
2.34088e-09
4.16084e-06
3.17997e-09
2.81951e-09
4.15998e-06
4.5202e-06
5.9137e-10
4.5199e-06
-5.26513e-10
4.52005e-06
6.4268e-10
4.51978e-06
-4.37677e-10
4.51994e-06
6.78114e-10
4.51967e-06
-4.03785e-10
4.51984e-06
6.46782e-10
4.5196e-06
-4.36543e-10
4.5198e-06
5.67609e-10
4.5196e-06
-5.0254e-10
4.51984e-06
4.62858e-10
4.51968e-06
-5.98525e-10
4.51996e-06
3.42246e-10
4.51984e-06
-6.98337e-10
4.52015e-06
2.37381e-10
4.52005e-06
-7.62079e-10
4.52035e-06
1.83908e-10
4.52025e-06
-7.59755e-10
4.52053e-06
2.04459e-10
4.52039e-06
-6.77794e-10
4.52062e-06
2.98602e-10
4.52042e-06
-5.25228e-10
4.52058e-06
4.45424e-10
4.52033e-06
-3.52573e-10
4.52044e-06
5.90184e-10
4.52015e-06
-2.15775e-10
4.52024e-06
6.6961e-10
4.51995e-06
-1.59938e-10
4.52006e-06
6.52082e-10
4.5198e-06
-1.9684e-10
4.51994e-06
5.49809e-10
4.51974e-06
-3.00734e-10
4.51994e-06
4.08932e-10
4.51978e-06
-4.19987e-10
4.52001e-06
2.96031e-10
4.51987e-06
-4.80538e-10
4.52009e-06
2.64386e-10
4.51993e-06
-4.48634e-10
4.52012e-06
3.21638e-10
4.51992e-06
-3.37839e-10
4.52005e-06
4.3887e-10
4.51981e-06
-2.05053e-10
4.5199e-06
5.5189e-10
4.51964e-06
-1.13827e-10
4.51973e-06
5.84843e-10
4.51948e-06
-1.12878e-10
4.5196e-06
5.26409e-10
4.51939e-06
-1.81627e-10
4.51955e-06
4.21384e-10
4.51938e-06
-2.77349e-10
4.51957e-06
3.34921e-10
4.51941e-06
-3.21047e-10
4.51958e-06
3.22123e-10
4.5194e-06
-2.82805e-10
4.51953e-06
3.82606e-10
4.51933e-06
-1.87314e-10
4.51942e-06
4.80138e-10
4.51918e-06
-8.90837e-11
4.51926e-06
5.38361e-10
4.51903e-06
-5.2229e-11
4.51912e-06
5.13966e-10
4.51891e-06
-8.66118e-11
4.51903e-06
4.40245e-10
4.51885e-06
-1.50919e-10
4.51899e-06
3.67945e-10
4.51883e-06
-1.902e-10
4.51896e-06
3.51719e-10
4.51878e-06
-1.64801e-10
4.51889e-06
3.97588e-10
4.51868e-06
-8.85656e-11
4.51876e-06
4.7125e-10
4.51853e-06
-1.81922e-11
4.5186e-06
5.07344e-10
4.51838e-06
3.93222e-12
4.51847e-06
4.78509e-10
4.51826e-06
-2.63651e-11
4.51837e-06
4.21093e-10
4.51818e-06
-7.29117e-11
4.5183e-06
3.81393e-10
4.51812e-06
-8.65564e-11
4.51822e-06
3.92465e-10
4.51802e-06
-4.96716e-11
4.5181e-06
4.44296e-10
4.51788e-06
1.14144e-11
4.51794e-06
4.94219e-10
4.51772e-06
5.31473e-11
4.51778e-06
4.95786e-10
4.51757e-06
4.57059e-11
4.51765e-06
4.6106e-10
4.51745e-06
1.43527e-11
4.51754e-06
4.24477e-10
4.51735e-06
-6.4787e-12
4.51743e-06
4.23713e-10
4.51723e-06
9.00172e-12
4.51729e-06
4.58301e-10
4.51708e-06
5.66999e-11
4.51713e-06
5.0103e-10
4.51691e-06
9.67428e-11
4.51696e-06
5.1269e-10
4.51674e-06
1.00323e-10
4.5168e-06
4.93201e-10
4.51659e-06
8.11538e-11
4.51665e-06
4.68012e-10
4.51645e-06
6.69553e-11
4.51651e-06
4.65702e-10
4.51631e-06
8.18506e-11
4.51635e-06
4.89769e-10
4.51614e-06
1.19967e-10
4.51617e-06
5.22115e-10
4.51594e-06
1.53318e-10
4.51597e-06
5.34989e-10
4.51575e-06
1.61874e-10
4.51579e-06
5.25479e-10
4.51557e-06
1.53305e-10
4.51561e-06
5.11395e-10
4.5154e-06
1.48813e-10
4.51543e-06
5.12429e-10
4.51522e-06
1.65671e-10
4.51524e-06
5.32471e-10
4.51501e-06
1.97474e-10
4.51503e-06
5.58115e-10
4.5148e-06
2.24413e-10
4.51481e-06
5.70498e-10
4.51458e-06
2.349e-10
4.51459e-06
5.68027e-10
4.51436e-06
2.33967e-10
4.51438e-06
5.63655e-10
4.51415e-06
2.38009e-10
4.51416e-06
5.70946e-10
4.51392e-06
2.57364e-10
4.51393e-06
5.92185e-10
4.51368e-06
2.86173e-10
4.51368e-06
6.16107e-10
4.51343e-06
3.10083e-10
4.51342e-06
6.29984e-10
4.51317e-06
3.22292e-10
4.51316e-06
6.34465e-10
4.51291e-06
3.28378e-10
4.5129e-06
6.3989e-10
4.51265e-06
3.40404e-10
4.51264e-06
6.55097e-10
4.51238e-06
3.63576e-10
4.51235e-06
6.79573e-10
4.51209e-06
3.91721e-10
4.51206e-06
7.04184e-10
4.51178e-06
4.15541e-10
4.51175e-06
7.22006e-10
4.51147e-06
4.32159e-10
4.51144e-06
7.35465e-10
4.51116e-06
4.47325e-10
4.51112e-06
7.52162e-10
4.51083e-06
4.68983e-10
4.51078e-06
7.77115e-10
4.51049e-06
4.98727e-10
4.51043e-06
8.08267e-10
4.51013e-06
5.31186e-10
4.51007e-06
8.39118e-10
4.50976e-06
5.60814e-10
4.50969e-06
8.66141e-10
4.50938e-06
5.87352e-10
4.5093e-06
8.92124e-10
4.50898e-06
6.15613e-10
4.50889e-06
9.22582e-10
4.50856e-06
6.50093e-10
4.50847e-06
9.6017e-10
4.50813e-06
6.90898e-10
4.50802e-06
1.0027e-09
4.50767e-06
7.3466e-10
4.50755e-06
1.04633e-09
4.50719e-06
7.78506e-10
4.50706e-06
1.09015e-09
4.50668e-06
8.23579e-10
4.50654e-06
1.13725e-09
4.50615e-06
8.73941e-10
4.50599e-06
1.19175e-09
4.50558e-06
9.32779e-10
4.50541e-06
1.25536e-09
4.50498e-06
1.00037e-09
4.50479e-06
1.32725e-09
4.50433e-06
1.07562e-09
4.50412e-06
1.40694e-09
4.50364e-06
1.1594e-09
4.5034e-06
1.49719e-09
4.5029e-06
1.25658e-09
4.50262e-06
1.60516e-09
4.50207e-06
1.37615e-09
4.50176e-06
1.74154e-09
4.50116e-06
1.52904e-09
4.50078e-06
1.9168e-09
4.50012e-06
1.7242e-09
4.4997e-06
2.13828e-09
4.49898e-06
1.96886e-09
4.49852e-06
2.41287e-09
4.49776e-06
2.27117e-09
4.49728e-06
2.74806e-09
4.49651e-06
2.63754e-09
4.49605e-06
3.14406e-09
4.49534e-06
3.05287e-09
4.49503e-06
3.48582e-09
3.5332e-09
4.49432e-06
4.8811e-06
4.39155e-10
4.88078e-06
-2.07966e-10
4.88093e-06
4.94376e-10
4.88066e-06
-1.64147e-10
4.88083e-06
5.02374e-10
4.88058e-06
-1.55952e-10
4.88076e-06
4.69994e-10
4.88053e-06
-2.04585e-10
4.88072e-06
3.73149e-10
4.88053e-06
-3.08763e-10
4.88076e-06
2.35848e-10
4.88061e-06
-4.51436e-10
4.88087e-06
8.12034e-11
4.88076e-06
-5.90292e-10
4.88105e-06
-5.16724e-11
4.88096e-06
-6.65889e-10
4.88125e-06
-1.06166e-10
4.88114e-06
-6.54807e-10
4.88141e-06
-6.09005e-11
4.88127e-06
-5.39638e-10
4.88148e-06
8.83039e-11
4.88129e-06
-3.40904e-10
4.88144e-06
3.00761e-10
4.88121e-06
-1.21472e-10
4.8813e-06
4.9365e-10
4.88104e-06
4.94426e-11
4.88112e-06
5.88284e-10
4.88085e-06
1.06126e-10
4.88095e-06
5.58278e-10
4.88071e-06
4.0414e-11
4.88084e-06
4.21966e-10
4.88066e-06
-1.17972e-10
4.88082e-06
2.41967e-10
4.88069e-06
-2.82718e-10
4.88088e-06
1.03017e-10
4.88075e-06
-3.55025e-10
4.88094e-06
7.54828e-11
4.8808e-06
-3.07096e-10
4.88095e-06
1.68578e-10
4.88078e-06
-1.63273e-10
4.88088e-06
3.38494e-10
4.88067e-06
5.35748e-12
4.88074e-06
4.81784e-10
4.88051e-06
1.16222e-10
4.88058e-06
5.13056e-10
4.88036e-06
1.03861e-10
4.88045e-06
4.35274e-10
4.88027e-06
1.4616e-12
4.88039e-06
3.00207e-10
4.88025e-06
-1.35038e-10
4.88039e-06
1.97257e-10
4.88025e-06
-1.87392e-10
4.88038e-06
1.92717e-10
4.88024e-06
-1.34813e-10
4.88033e-06
2.88601e-10
4.88015e-06
-1.16952e-11
4.88022e-06
4.18728e-10
4.88001e-06
1.1579e-10
4.88007e-06
4.83129e-10
4.87986e-06
1.494e-10
4.87992e-06
4.54536e-10
4.87974e-06
9.38588e-11
4.87983e-06
3.5689e-10
4.87967e-06
4.08808e-12
4.87977e-06
2.68555e-10
4.87963e-06
-4.97265e-11
4.87972e-06
2.61631e-10
4.87957e-06
-1.41698e-11
4.87964e-06
3.30726e-10
4.87946e-06
8.84406e-11
4.87951e-06
4.24354e-10
4.87931e-06
1.76254e-10
4.87935e-06
4.66311e-10
4.87917e-06
1.91956e-10
4.87921e-06
4.35214e-10
4.87904e-06
1.41503e-10
4.8791e-06
3.62197e-10
4.87895e-06
7.65615e-11
4.87901e-06
3.17372e-10
4.87887e-06
6.22307e-11
4.87892e-06
3.38111e-10
4.87876e-06
1.14337e-10
4.87879e-06
4.08605e-10
4.87861e-06
1.94038e-10
4.87863e-06
4.7074e-10
4.87845e-06
2.36476e-10
4.87847e-06
4.77498e-10
4.87829e-06
2.19053e-10
4.87832e-06
4.35516e-10
4.87816e-06
1.7029e-10
4.8782e-06
3.92594e-10
4.87804e-06
1.45903e-10
4.87807e-06
3.93602e-10
4.87791e-06
1.71849e-10
4.87793e-06
4.40722e-10
4.87775e-06
2.33217e-10
4.87776e-06
4.95703e-10
4.87758e-06
2.77911e-10
4.87758e-06
5.13149e-10
4.8774e-06
2.77294e-10
4.8774e-06
4.90274e-10
4.87723e-06
2.47594e-10
4.87724e-06
4.59352e-10
4.87708e-06
2.30465e-10
4.87709e-06
4.58605e-10
4.87692e-06
2.51354e-10
4.87691e-06
4.92847e-10
4.87673e-06
2.99968e-10
4.87672e-06
5.35824e-10
4.87654e-06
3.38945e-10
4.87652e-06
5.54033e-10
4.87633e-06
3.46179e-10
4.87631e-06
5.43108e-10
4.87614e-06
3.3195e-10
4.87612e-06
5.25845e-10
4.87594e-06
3.26221e-10
4.87593e-06
5.29191e-10
4.87574e-06
3.47494e-10
4.87572e-06
5.57823e-10
4.87553e-06
3.87572e-10
4.8755e-06
5.92229e-10
4.8753e-06
4.19825e-10
4.87526e-06
6.09564e-10
4.87507e-06
4.30321e-10
4.87503e-06
6.07282e-10
4.87483e-06
4.27006e-10
4.87479e-06
6.02473e-10
4.8746e-06
4.31683e-10
4.87456e-06
6.13636e-10
4.87436e-06
4.56094e-10
4.87431e-06
6.43009e-10
4.8741e-06
4.92273e-10
4.87404e-06
6.74775e-10
4.87383e-06
5.21112e-10
4.87377e-06
6.93555e-10
4.87356e-06
5.34645e-10
4.87349e-06
6.99892e-10
4.87328e-06
5.41139e-10
4.87321e-06
7.07407e-10
4.873e-06
5.55805e-10
4.87292e-06
7.28088e-10
4.8727e-06
5.84883e-10
4.87262e-06
7.60739e-10
4.87239e-06
6.20142e-10
4.8723e-06
7.93075e-10
4.87207e-06
6.49137e-10
4.87197e-06
8.16475e-10
4.87174e-06
6.69003e-10
4.87164e-06
8.33963e-10
4.8714e-06
6.87515e-10
4.8713e-06
8.55642e-10
4.87105e-06
7.14454e-10
4.87094e-06
8.88134e-10
4.87069e-06
7.51781e-10
4.87057e-06
9.28212e-10
4.87031e-06
7.92353e-10
4.87018e-06
9.67397e-10
4.86991e-06
8.28841e-10
4.86977e-06
1.00162e-09
4.8695e-06
8.61314e-10
4.86936e-06
1.03471e-09
4.86908e-06
8.96263e-10
4.86892e-06
1.07382e-09
4.86864e-06
9.3966e-10
4.86847e-06
1.12219e-09
4.86817e-06
9.91403e-10
4.868e-06
1.17673e-09
4.86769e-06
1.04662e-09
4.8675e-06
1.23249e-09
4.86718e-06
1.10182e-09
4.86698e-06
1.28854e-09
4.86664e-06
1.15885e-09
4.86643e-06
1.34896e-09
4.86608e-06
1.22304e-09
4.86586e-06
1.41897e-09
4.86549e-06
1.2984e-09
4.86524e-06
1.50066e-09
4.86486e-06
1.38511e-09
4.86459e-06
1.59296e-09
4.86419e-06
1.48193e-09
4.8639e-06
1.6957e-09
4.86347e-06
1.59054e-09
4.86315e-06
1.81303e-09
4.86269e-06
1.71736e-09
4.86234e-06
1.95297e-09
4.86185e-06
1.87083e-09
4.86147e-06
2.12326e-09
4.86094e-06
2.05732e-09
4.86053e-06
2.32846e-09
4.85997e-06
2.28013e-09
4.85954e-06
2.57088e-09
4.85897e-06
2.54146e-09
4.85853e-06
2.85264e-09
4.85795e-06
2.84346e-09
4.85753e-06
3.17489e-09
4.85698e-06
3.18452e-09
4.8566e-06
3.52713e-09
4.85614e-06
3.51074e-09
4.85576e-06
3.86764e-09
4.02816e-09
4.85526e-06
5.27078e-06
3.05852e-10
5.27056e-06
7.22012e-12
5.27064e-06
4.1472e-10
5.27042e-06
5.72254e-11
5.27053e-06
3.98748e-10
5.27034e-06
3.12147e-11
5.27046e-06
3.45806e-10
5.2703e-06
-4.08833e-11
5.27043e-06
2.40753e-10
5.2703e-06
-1.73552e-10
5.27046e-06
7.6028e-11
5.27036e-06
-3.54471e-10
5.27056e-06
-1.16507e-10
5.2705e-06
-5.29887e-10
5.27071e-06
-2.68999e-10
5.27067e-06
-6.24613e-10
5.27089e-06
-3.22111e-10
5.27084e-06
-6.08965e-10
5.27103e-06
-2.49276e-10
5.27095e-06
-4.62254e-10
5.2711e-06
-5.74066e-11
5.27098e-06
-2.17362e-10
5.27106e-06
2.1265e-10
5.27089e-06
5.19006e-11
5.27094e-06
4.44688e-10
5.27074e-06
2.46993e-10
5.27077e-06
5.61742e-10
5.27057e-06
3.02078e-10
5.27061e-06
5.2612e-10
5.27044e-06
2.05208e-10
5.27051e-06
3.56524e-10
5.27038e-06
1.12243e-11
5.27048e-06
1.37079e-10
5.27039e-06
-1.92535e-10
5.27052e-06
-2.226e-11
5.27044e-06
-2.77983e-10
5.27056e-06
-4.68066e-11
5.27047e-06
-2.17191e-10
5.27056e-06
7.97884e-11
5.27044e-06
-4.15708e-11
5.27049e-06
2.90016e-10
5.27033e-06
1.66569e-10
5.27035e-06
4.55118e-10
5.27019e-06
2.84468e-10
5.2702e-06
4.98517e-10
5.27004e-06
2.59163e-10
5.27007e-06
4.06693e-10
5.26995e-06
1.236e-10
5.27001e-06
2.42948e-10
5.26991e-06
-3.57093e-11
5.26998e-06
1.21269e-10
5.2699e-06
-9.91041e-11
5.26997e-06
1.2289e-10
5.26987e-06
-3.36613e-11
5.26991e-06
2.45376e-10
5.26977e-06
1.27561e-10
5.26979e-06
3.99253e-10
5.26964e-06
2.64961e-10
5.26964e-06
4.80878e-10
5.26949e-06
2.98581e-10
5.2695e-06
4.48019e-10
5.26937e-06
2.23513e-10
5.26939e-06
3.33604e-10
5.26929e-06
1.09339e-10
5.26932e-06
2.33028e-10
5.26922e-06
5.05473e-11
5.26926e-06
2.23458e-10
5.26915e-06
1.00571e-10
5.26916e-06
3.12076e-10
5.26903e-06
2.22317e-10
5.26903e-06
4.24776e-10
5.26889e-06
3.19652e-10
5.26888e-06
4.77562e-10
5.26873e-06
3.33145e-10
5.26873e-06
4.41996e-10
5.2686e-06
2.66617e-10
5.26861e-06
3.56875e-10
5.2685e-06
1.89369e-10
5.26851e-06
3.05689e-10
5.26839e-06
1.74839e-10
5.2684e-06
3.33111e-10
5.26827e-06
2.4067e-10
5.26826e-06
4.20785e-10
5.26812e-06
3.32995e-10
5.2681e-06
4.94275e-10
5.26796e-06
3.79417e-10
5.26793e-06
5.05229e-10
5.26779e-06
3.55576e-10
5.26777e-06
4.56016e-10
5.26764e-06
2.95883e-10
5.26763e-06
4.07151e-10
5.26751e-06
2.67822e-10
5.26749e-06
4.09424e-10
5.26736e-06
3.0171e-10
5.26734e-06
4.68242e-10
5.26719e-06
3.73638e-10
5.26716e-06
5.33603e-10
5.26701e-06
4.23597e-10
5.26697e-06
5.57306e-10
5.26682e-06
4.21493e-10
5.26678e-06
5.31322e-10
5.26664e-06
3.84997e-10
5.26661e-06
4.96358e-10
5.26647e-06
3.65481e-10
5.26643e-06
4.96389e-10
5.26629e-06
3.91258e-10
5.26625e-06
5.39618e-10
5.2661e-06
4.48447e-10
5.26604e-06
5.9193e-10
5.26589e-06
4.93106e-10
5.26583e-06
6.16084e-10
5.26567e-06
5.00859e-10
5.26561e-06
6.0441e-10
5.26546e-06
4.83322e-10
5.2654e-06
5.85205e-10
5.26525e-06
4.76483e-10
5.26519e-06
5.90298e-10
5.26503e-06
5.01721e-10
5.26497e-06
6.26389e-10
5.26481e-06
5.48741e-10
5.26473e-06
6.6894e-10
5.26456e-06
5.86647e-10
5.26448e-06
6.91705e-10
5.26431e-06
5.98681e-10
5.26423e-06
6.90334e-10
5.26406e-06
5.94689e-10
5.26398e-06
6.85878e-10
5.26381e-06
6.00078e-10
5.26372e-06
7.00627e-10
5.26355e-06
6.29294e-10
5.26345e-06
7.37302e-10
5.26327e-06
6.72166e-10
5.26317e-06
7.76577e-10
5.26299e-06
7.06517e-10
5.26288e-06
8.00564e-10
5.26269e-06
7.22668e-10
5.26258e-06
8.09337e-10
5.26239e-06
7.30425e-10
5.26228e-06
8.19271e-10
5.26209e-06
7.47953e-10
5.26197e-06
8.45209e-10
5.26177e-06
7.82933e-10
5.26165e-06
8.85463e-10
5.26144e-06
8.2522e-10
5.26131e-06
9.25313e-10
5.2611e-06
8.60194e-10
5.26096e-06
9.54551e-10
5.26075e-06
8.84325e-10
5.2606e-06
9.76504e-10
5.26039e-06
9.06747e-10
5.26024e-06
1.00329e-09
5.26001e-06
9.39265e-10
5.25986e-06
1.04298e-09
5.25963e-06
9.84133e-10
5.25946e-06
1.09165e-09
5.25922e-06
1.03285e-09
5.25905e-06
1.13922e-09
5.2588e-06
1.07679e-09
5.25862e-06
1.18089e-09
5.25837e-06
1.11607e-09
5.25818e-06
1.22126e-09
5.25792e-06
1.15843e-09
5.25772e-06
1.26893e-09
5.25745e-06
1.21101e-09
5.25725e-06
1.32771e-09
5.25697e-06
1.2736e-09
5.25675e-06
1.39381e-09
5.25645e-06
1.34032e-09
5.25623e-06
1.46134e-09
5.25592e-06
1.40711e-09
5.25568e-06
1.52926e-09
5.25536e-06
1.47624e-09
5.25511e-06
1.60251e-09
5.25478e-06
1.55408e-09
5.25451e-06
1.68729e-09
5.25416e-06
1.64534e-09
5.25388e-06
1.78609e-09
5.25351e-06
1.7503e-09
5.25321e-06
1.89767e-09
5.25282e-06
1.86736e-09
5.2525e-06
2.02139e-09
5.25209e-06
1.99767e-09
5.25174e-06
2.16051e-09
5.25131e-06
2.14632e-09
5.25094e-06
2.32117e-09
5.2505e-06
2.31956e-09
5.25011e-06
2.50874e-09
5.24965e-06
2.52132e-09
5.24925e-06
2.72538e-09
5.24878e-06
2.75224e-09
5.24838e-06
2.9706e-09
5.24791e-06
3.01131e-09
5.24752e-06
3.24318e-09
5.24706e-06
3.29691e-09
5.2467e-06
3.53979e-09
5.24628e-06
3.5991e-09
5.24598e-06
3.82774e-09
5.24559e-06
3.90405e-09
5.24528e-06
4.1793e-09
4.37248e-09
5.24493e-06
5.69156e-06
2.06658e-10
5.69144e-06
1.23331e-10
5.69148e-06
3.79217e-10
5.69134e-06
1.94673e-10
5.69137e-06
3.70364e-10
5.69124e-06
1.59964e-10
5.69129e-06
2.96858e-10
5.69118e-06
6.48866e-11
5.69126e-06
1.68586e-10
5.69118e-06
-9.36516e-11
5.69127e-06
-1.94736e-11
5.69122e-06
-3.05039e-10
5.69135e-06
-2.40485e-10
5.69133e-06
-5.12136e-10
5.69148e-06
-4.16371e-10
5.69148e-06
-6.25201e-10
5.69162e-06
-4.69218e-10
5.69162e-06
-6.07215e-10
5.69175e-06
-3.7777e-10
5.69172e-06
-4.36269e-10
5.69181e-06
-1.45301e-10
5.69174e-06
-1.50099e-10
5.69179e-06
1.68972e-10
5.69167e-06
1.66085e-10
5.69168e-06
4.40852e-10
5.69154e-06
3.85097e-10
5.69152e-06
5.77873e-10
5.69138e-06
4.42326e-10
5.69137e-06
5.35829e-10
5.69126e-06
3.2253e-10
5.69127e-06
3.40958e-10
5.69119e-06
9.24507e-11
5.69124e-06
8.96248e-11
5.69118e-06
-1.3799e-10
5.69125e-06
-9.12636e-11
5.69121e-06
-2.37883e-10
5.69128e-06
-1.11172e-10
5.69123e-06
-1.66369e-10
5.69127e-06
3.7213e-11
5.69118e-06
4.27829e-11
5.69119e-06
2.8144e-10
5.69108e-06
2.7803e-10
5.69107e-06
4.71012e-10
5.69094e-06
4.0677e-10
5.69092e-06
5.22113e-10
5.6908e-06
3.74141e-10
5.6908e-06
4.15402e-10
5.69071e-06
2.12264e-10
5.69072e-06
2.29089e-10
5.69065e-06
3.44466e-11
5.69068e-06
9.27091e-11
5.69062e-06
-3.95027e-11
5.69065e-06
9.66391e-11
5.69057e-06
4.27187e-11
5.69057e-06
2.41479e-10
5.69047e-06
2.26857e-10
5.69046e-06
4.16815e-10
5.69034e-06
3.76837e-10
5.69031e-06
5.12385e-10
5.6902e-06
4.12718e-10
5.69017e-06
4.75518e-10
5.69007e-06
3.2422e-10
5.69006e-06
3.46904e-10
5.68997e-06
1.94016e-10
5.68997e-06
2.35329e-10
5.68989e-06
1.29482e-10
5.68989e-06
2.25941e-10
5.6898e-06
1.87666e-10
5.68978e-06
3.30532e-10
5.68968e-06
3.24061e-10
5.68965e-06
4.58819e-10
5.68954e-06
4.32335e-10
5.68949e-06
5.22081e-10
5.68938e-06
4.45804e-10
5.68934e-06
4.81742e-10
5.68924e-06
3.68442e-10
5.68921e-06
3.87655e-10
5.68911e-06
2.8247e-10
5.68909e-06
3.29587e-10
5.689e-06
2.66922e-10
5.68897e-06
3.63605e-10
5.68886e-06
3.43663e-10
5.68882e-06
4.64145e-10
5.68871e-06
4.45852e-10
5.68865e-06
5.49639e-10
5.68853e-06
4.98916e-10
5.68847e-06
5.62913e-10
5.68836e-06
4.71165e-10
5.68831e-06
5.08592e-10
5.6882e-06
4.05558e-10
5.68815e-06
4.53703e-10
5.68804e-06
3.7349e-10
5.688e-06
4.57665e-10
5.68788e-06
4.13569e-10
5.68783e-06
5.25524e-10
5.68771e-06
4.93379e-10
5.68764e-06
6.00713e-10
5.68751e-06
5.50601e-10
5.68744e-06
6.295e-10
5.68731e-06
5.48485e-10
5.68724e-06
6.02003e-10
5.68712e-06
5.0886e-10
5.68705e-06
5.63855e-10
5.68693e-06
4.86591e-10
5.68686e-06
5.64832e-10
5.68674e-06
5.16653e-10
5.68666e-06
6.1526e-10
5.68653e-06
5.80632e-10
5.68644e-06
6.76258e-10
5.68631e-06
6.32188e-10
5.68622e-06
7.06004e-10
5.68607e-06
6.41622e-10
5.68598e-06
6.94837e-10
5.68585e-06
6.22801e-10
5.68576e-06
6.74297e-10
5.68562e-06
6.14715e-10
5.68553e-06
6.81157e-10
5.68539e-06
6.43553e-10
5.68529e-06
7.23348e-10
5.68514e-06
6.96606e-10
5.68504e-06
7.73686e-10
5.68488e-06
7.40933e-10
5.68477e-06
8.01978e-10
5.68461e-06
7.55761e-10
5.6845e-06
8.02612e-10
5.68434e-06
7.52165e-10
5.68423e-06
7.98782e-10
5.68407e-06
7.58604e-10
5.68396e-06
8.17043e-10
5.68379e-06
7.9242e-10
5.68367e-06
8.60153e-10
5.6835e-06
8.41646e-10
5.68337e-06
9.06643e-10
5.6832e-06
8.82058e-10
5.68306e-06
9.36006e-10
5.68288e-06
9.01741e-10
5.68274e-06
9.47698e-10
5.68256e-06
9.11462e-10
5.68242e-06
9.60343e-10
5.68224e-06
9.32389e-10
5.68209e-06
9.91374e-10
5.6819e-06
9.73202e-10
5.68175e-06
1.03866e-09
5.68155e-06
1.0225e-09
5.68139e-06
1.08585e-09
5.68118e-06
1.06399e-09
5.68102e-06
1.12107e-09
5.68081e-06
1.09305e-09
5.68064e-06
1.14768e-09
5.68042e-06
1.11997e-09
5.68025e-06
1.17968e-09
5.68003e-06
1.15834e-09
5.67985e-06
1.22628e-09
5.67962e-06
1.21068e-09
5.67943e-06
1.2831e-09
5.67919e-06
1.26757e-09
5.67899e-06
1.33892e-09
5.67875e-06
1.31934e-09
5.67854e-06
1.38817e-09
5.67829e-06
1.3659e-09
5.67808e-06
1.43593e-09
5.67782e-06
1.41595e-09
5.6776e-06
1.49196e-09
5.67733e-06
1.4776e-09
5.6771e-06
1.56059e-09
5.67682e-06
1.5506e-09
5.67658e-06
1.63756e-09
5.67629e-06
1.62838e-09
5.67604e-06
1.71625e-09
5.67574e-06
1.70637e-09
5.67547e-06
1.79545e-09
5.67516e-06
1.78706e-09
5.67488e-06
1.88069e-09
5.67456e-06
1.87758e-09
5.67427e-06
1.97889e-09
5.67393e-06
1.98314e-09
5.67362e-06
2.09266e-09
5.67327e-06
2.10366e-09
5.67295e-06
2.21999e-09
5.67258e-06
2.23648e-09
5.67224e-06
2.35888e-09
5.67186e-06
2.38124e-09
5.67151e-06
2.51111e-09
5.67111e-06
2.5417e-09
5.67075e-06
2.68165e-09
5.67035e-06
2.72305e-09
5.66998e-06
2.87481e-09
5.66957e-06
2.92793e-09
5.66921e-06
3.09124e-09
5.6688e-06
3.15515e-09
5.66845e-06
3.32836e-09
5.66806e-06
3.40133e-09
5.66772e-06
3.58226e-09
5.66735e-06
3.66121e-09
5.66705e-06
3.84033e-09
5.66674e-06
3.91435e-09
5.66646e-06
4.10962e-09
5.66615e-06
4.21127e-09
5.6659e-06
4.423e-09
4.62072e-09
5.66566e-06
6.14594e-06
1.41888e-10
6.14589e-06
1.66855e-10
6.14592e-06
3.48069e-10
6.14583e-06
2.8257e-10
6.14583e-06
3.71517e-10
6.14574e-06
2.50966e-10
6.14575e-06
2.94311e-10
6.14567e-06
1.38875e-10
6.1457e-06
1.43381e-10
6.14565e-06
-4.44776e-11
6.1457e-06
-6.93052e-11
6.14567e-06
-2.82053e-10
6.14574e-06