/*--------------------------------*- C++ -*----------------------------------*\
| =========                 |                                                 |
| \\      /  F ield         | OpenFOAM: The Open Source CFD Toolbox           |
|  \\    /   O peration     | Version:  v1912                                 |
|   \\  /    A nd           | Website:  www.openfoam.com                      |
|    \\/     M anipulation  |                                                 |
\*---------------------------------------------------------------------------*/
FoamFile
{
    version     2.0;
    format      ascii;
    class       volVectorField;
    location    "0.3";
    object      U;
}
// * * * * * * * * * * * * * * * * * * * * * * * * * * * * * * * * * * * * * //

dimensions      [0 1 -1 0 0 0 0];


internalField   nonuniform List<vector> 
12000
(
(0.999437 8.70192e-05 0)
(1.00058 -9.35117e-05 0)
(0.999448 8.5606e-05 0)
(1.00057 -9.12973e-05 0)
(0.999435 8.67584e-05 0)
(1.00055 -8.93755e-05 0)
(0.999404 8.69457e-05 0)
(1.00051 -8.85931e-05 0)
(0.999366 8.63607e-05 0)
(1.00048 -8.83763e-05 0)
(0.999335 8.54308e-05 0)
(1.00045 -8.85777e-05 0)
(0.999322 8.4063e-05 0)
(1.00045 -8.92154e-05 0)
(0.999336 8.23843e-05 0)
(1.00048 -8.98764e-05 0)
(0.99938 8.09635e-05 0)
(1.00054 -8.99155e-05 0)
(0.999447 8.02819e-05 0)
(1.00061 -8.92038e-05 0)
(0.999522 8.0327e-05 0)
(1.00068 -8.76813e-05 0)
(0.999583 8.1223e-05 0)
(1.00073 -8.53721e-05 0)
(0.999605 8.26566e-05 0)
(1.00072 -8.29399e-05 0)
(0.999573 8.378e-05 0)
(1.00066 -8.12648e-05 0)
(0.999493 8.37839e-05 0)
(1.00057 -8.0672e-05 0)
(0.999389 8.30481e-05 0)
(1.00047 -8.06844e-05 0)
(0.999303 8.18501e-05 0)
(1.00041 -8.11877e-05 0)
(0.999273 8.04604e-05 0)
(1.00041 -8.16002e-05 0)
(0.999312 7.96094e-05 0)
(1.00048 -8.11905e-05 0)
(0.999399 7.97446e-05 0)
(1.00058 -7.97854e-05 0)
(0.999483 8.08084e-05 0)
(1.00064 -7.77648e-05 0)
(0.999508 8.22179e-05 0)
(1.00063 -7.58819e-05 0)
(0.999451 8.29912e-05 0)
(1.00053 -7.50762e-05 0)
(0.999332 8.27054e-05 0)
(1.00041 -7.49256e-05 0)
(0.999215 8.19543e-05 0)
(1.00032 -7.5133e-05 0)
(0.999167 8.10388e-05 0)
(1.00032 -7.52645e-05 0)
(0.99921 8.04509e-05 0)
(1.0004 -7.46036e-05 0)
(0.999306 8.08841e-05 0)
(1.00049 -7.3013e-05 0)
(0.999377 8.20363e-05 0)
(1.00053 -7.10684e-05 0)
(0.999359 8.31099e-05 0)
(1.00046 -6.9805e-05 0)
(0.99925 8.31054e-05 0)
(1.00033 -6.93902e-05 0)
(0.999116 8.26993e-05 0)
(1.00022 -6.92747e-05 0)
(0.999043 8.22037e-05 0)
(1.0002 -6.92269e-05 0)
(0.99907 8.18685e-05 0)
(1.00027 -6.86463e-05 0)
(0.999159 8.25208e-05 0)
(1.00037 -6.71746e-05 0)
(0.999221 8.38195e-05 0)
(1.00039 -6.55861e-05 0)
(0.999186 8.4803e-05 0)
(1.00031 -6.48144e-05 0)
(0.999063 8.4918e-05 0)
(1.00017 -6.46019e-05 0)
(0.998935 8.48278e-05 0)
(1.00008 -6.45511e-05 0)
(0.998889 8.46821e-05 0)
(1.00009 -6.44383e-05 0)
(0.998939 8.50018e-05 0)
(1.00018 -6.34565e-05 0)
(0.999016 8.62467e-05 0)
(1.00024 -6.18806e-05 0)
(0.999026 8.76324e-05 0)
(1.0002 -6.06677e-05 0)
(0.998935 8.82542e-05 0)
(1.00008 -6.02754e-05 0)
(0.998798 8.83422e-05 0)
(0.999964 -6.01633e-05 0)
(0.998714 8.83448e-05 0)
(0.999936 -6.00122e-05 0)
(0.998729 8.86763e-05 0)
(0.999994 -5.92386e-05 0)
(0.998794 8.98283e-05 0)
(1.00006 -5.77323e-05 0)
(0.998815 9.1362e-05 0)
(1.00004 -5.63744e-05 0)
(0.99874 9.23486e-05 0)
(0.999931 -5.57498e-05 0)
(0.998609 9.27487e-05 0)
(0.999815 -5.551e-05 0)
(0.998514 9.3055e-05 0)
(0.999771 -5.52081e-05 0)
(0.998507 9.36928e-05 0)
(0.999808 -5.44244e-05 0)
(0.998551 9.49616e-05 0)
(0.999854 -5.30749e-05 0)
(0.998561 9.65949e-05 0)
(0.999833 -5.17617e-05 0)
(0.998488 9.79345e-05 0)
(0.999736 -5.09463e-05 0)
(0.998365 9.88561e-05 0)
(0.999629 -5.04574e-05 0)
(0.998272 9.97186e-05 0)
(0.999583 -4.9901e-05 0)
(0.998254 0.000100898 0)
(0.999605 -4.89549e-05 0)
(0.998276 0.00010258 0)
(0.999631 -4.76041e-05 0)
(0.998265 0.00010455 0)
(0.999597 -4.62606e-05 0)
(0.998183 0.000106354 0)
(0.9995 -4.52537e-05 0)
(0.998062 0.000107897 0)
(0.999401 -4.44663e-05 0)
(0.997974 0.000109462 0)
(0.999359 -4.35645e-05 0)
(0.997948 0.000111355 0)
(0.999369 -4.23128e-05 0)
(0.997949 0.000113687 0)
(0.999374 -4.07438e-05 0)
(0.997913 0.000116247 0)
(0.999322 -3.91859e-05 0)
(0.997816 0.000118721 0)
(0.999224 -3.78423e-05 0)
(0.997698 0.000121087 0)
(0.999134 -3.65749e-05 0)
(0.997613 0.0001236 0)
(0.999095 -3.51094e-05 0)
(0.997578 0.000126488 0)
(0.999089 -3.32995e-05 0)
(0.99755 0.000129771 0)
(0.999066 -3.12352e-05 0)
(0.997483 0.000133276 0)
(0.998995 -2.91231e-05 0)
(0.997372 0.000136847 0)
(0.998895 -2.70238e-05 0)
(0.997254 0.000140549 0)
(0.998813 -2.47887e-05 0)
(0.997169 0.000144582 0)
(0.99877 -2.22389e-05 0)
(0.997115 0.000149061 0)
(0.998742 -1.93374e-05 0)
(0.997055 0.00015393 0)
(0.998692 -1.62338e-05 0)
(0.996959 0.000158994 0)
(0.998603 -1.30749e-05 0)
(0.996831 0.000164205 0)
(0.9985 -9.82728e-06 0)
(0.996706 0.000169686 0)
(0.998415 -6.32616e-06 0)
(0.996607 0.000175621 0)
(0.998356 -2.41312e-06 0)
(0.996523 0.000182112 0)
(0.9983 1.93285e-06 0)
(0.996425 0.000189108 0)
(0.998218 6.56428e-06 0)
(0.996295 0.000196481 0)
(0.998109 1.15053e-05 0)
(0.996144 0.000204248 0)
(0.997993 1.66863e-05 0)
(0.995998 0.000212504 0)
(0.99789 2.23402e-05 0)
(0.995865 0.000221484 0)
(0.997799 2.8664e-05 0)
(0.995733 0.000231352 0)
(0.997697 3.57693e-05 0)
(0.995578 0.000242197 0)
(0.997569 4.37312e-05 0)
(0.995393 0.000254129 0)
(0.997417 5.2701e-05 0)
(0.995189 0.000267379 0)
(0.997256 6.29693e-05 0)
(0.994981 0.000282315 0)
(0.997094 7.49572e-05 0)
(0.994767 0.000299437 0)
(0.996922 8.9243e-05 0)
(0.99453 0.000319482 0)
(0.996719 0.000106794 0)
(0.99425 0.000343832 0)
(0.996468 0.000129632 0)
(0.993915 0.000375596 0)
(0.996162 0.000162549 0)
(0.993519 0.000422209 0)
(0.995793 0.000216757 0)
(0.993049 0.000500151 0)
(0.995341 0.000315373 0)
(0.992479 0.000640448 0)
(0.994781 0.000497626 0)
(0.99975 8.39432e-05 0)
(1.00026 -9.64646e-05 0)
(0.999768 8.40312e-05 0)
(1.00025 -9.06967e-05 0)
(0.999758 8.92652e-05 0)
(1.00023 -8.64997e-05 0)
(0.999729 9.08367e-05 0)
(1.00019 -8.61572e-05 0)
(0.999694 8.94453e-05 0)
(1.00015 -8.81784e-05 0)
(0.999666 8.62909e-05 0)
(1.00012 -9.18401e-05 0)
(0.999656 8.18006e-05 0)
(1.00012 -9.63843e-05 0)
(0.999674 7.7138e-05 0)
(1.00014 -0.000100232 0)
(0.999721 7.40745e-05 0)
(1.0002 -0.000101685 0)
(0.999792 7.39556e-05 0)
(1.00027 -9.99492e-05 0)
(0.999871 7.71071e-05 0)
(1.00033 -9.48369e-05 0)
(0.999935 8.32893e-05 0)
(1.00037 -8.73634e-05 0)
(0.999961 9.05639e-05 0)
(1.00037 -8.01973e-05 0)
(0.999933 9.60001e-05 0)
(1.0003 -7.62092e-05 0)
(0.999855 9.73145e-05 0)
(1.0002 -7.64918e-05 0)
(0.999755 9.47602e-05 0)
(1.0001 -8.00918e-05 0)
(0.999672 8.97413e-05 0)
(1.00004 -8.52345e-05 0)
(0.999645 8.46473e-05 0)
(1.00004 -8.90038e-05 0)
(0.999688 8.24394e-05 0)
(1.00011 -8.90477e-05 0)
(0.999779 8.44069e-05 0)
(1.0002 -8.49082e-05 0)
(0.999866 9.0173e-05 0)
(1.00026 -7.83609e-05 0)
(0.999895 9.66676e-05 0)
(1.00024 -7.2983e-05 0)
(0.99984 0.000100331 0)
(1.00014 -7.17676e-05 0)
(0.999725 9.95729e-05 0)
(1.00001 -7.43064e-05 0)
(0.999612 9.5981e-05 0)
(0.999922 -7.85153e-05 0)
(0.999567 9.21441e-05 0)
(0.999917 -8.14678e-05 0)
(0.999615 9.08331e-05 0)
(0.999993 -8.0768e-05 0)
(0.999715 9.36678e-05 0)
(1.00008 -7.61615e-05 0)
(0.999791 9.92651e-05 0)
(1.00011 -7.04619e-05 0)
(0.999778 0.000104051 0)
(1.00004 -6.74799e-05 0)
(0.999673 0.00010481 0)
(0.999908 -6.84185e-05 0)
(0.999543 0.000102555 0)
(0.999793 -7.12856e-05 0)
(0.999474 9.97191e-05 0)
(0.999769 -7.36037e-05 0)
(0.999506 9.8638e-05 0)
(0.999837 -7.30195e-05 0)
(0.9996 0.000101342 0)
(0.999924 -6.88661e-05 0)
(0.999666 0.000106535 0)
(0.999941 -6.4143e-05 0)
(0.999635 0.000110392 0)
(0.999855 -6.23726e-05 0)
(0.999516 0.0001108 0)
(0.999718 -6.36842e-05 0)
(0.999392 0.000109128 0)
(0.999623 -6.61031e-05 0)
(0.99935 0.000107574 0)
(0.999631 -6.73157e-05 0)
(0.999406 0.000108505 0)
(0.999708 -6.52143e-05 0)
(0.999488 0.000112754 0)
(0.999763 -6.0835e-05 0)
(0.999502 0.000117661 0)
(0.999721 -5.76529e-05 0)
(0.999415 0.000119983 0)
(0.999596 -5.76396e-05 0)
(0.999283 0.000119584 0)
(0.999476 -5.94831e-05 0)
(0.999204 0.000118436 0)
(0.999443 -6.09425e-05 0)
(0.999225 0.000118957 0)
(0.999496 -5.97809e-05 0)
(0.999296 0.000122515 0)
(0.999552 -5.59862e-05 0)
(0.999323 0.000127497 0)
(0.999526 -5.24611e-05 0)
(0.999254 0.000130748 0)
(0.999414 -5.15124e-05 0)
(0.999129 0.000131442 0)
(0.999291 -5.25178e-05 0)
(0.999041 0.000131201 0)
(0.999241 -5.33862e-05 0)
(0.999041 0.000132237 0)
(0.999271 -5.2174e-05 0)
(0.999093 0.000135727 0)
(0.999311 -4.87878e-05 0)
(0.99911 0.000140539 0)
(0.999282 -4.53511e-05 0)
(0.999044 0.000144299 0)
(0.999177 -4.37571e-05 0)
(0.998928 0.000146107 0)
(0.999062 -4.3773e-05 0)
(0.998844 0.00014714 0)
(0.999009 -4.37054e-05 0)
(0.998834 0.000149223 0)
(0.999023 -4.19815e-05 0)
(0.998864 0.00015328 0)
(0.999041 -3.85719e-05 0)
(0.998862 0.000158419 0)
(0.998998 -3.50752e-05 0)
(0.998788 0.000162857 0)
(0.998893 -3.29483e-05 0)
(0.998676 0.000165879 0)
(0.998785 -3.20167e-05 0)
(0.998596 0.000168442 0)
(0.998734 -3.08682e-05 0)
(0.99858 0.000172042 0)
(0.998735 -2.82737e-05 0)
(0.99859 0.000177339 0)
(0.998731 -2.43372e-05 0)
(0.998564 0.000183482 0)
(0.99867 -2.04169e-05 0)
(0.998477 0.000189063 0)
(0.998561 -1.75374e-05 0)
(0.998368 0.000193722 0)
(0.998462 -1.53503e-05 0)
(0.998294 0.000198391 0)
(0.998412 -1.26402e-05 0)
(0.99827 0.000204231 0)
(0.998396 -8.59715e-06 0)
(0.998254 0.000211501 0)
(0.998362 -3.56016e-06 0)
(0.998198 0.000219399 0)
(0.998279 1.45896e-06 0)
(0.998099 0.000227025 0)
(0.998168 5.93216e-06 0)
(0.997993 0.000234376 0)
(0.998074 1.03441e-05 0)
(0.997921 0.000242275 0)
(0.998019 1.56052e-05 0)
(0.997881 0.000251471 0)
(0.997978 2.21102e-05 0)
(0.997835 0.000261918 0)
(0.997914 2.939e-05 0)
(0.997753 0.000272896 0)
(0.997811 3.67194e-05 0)
(0.997641 0.000283902 0)
(0.997693 4.39469e-05 0)
(0.997532 0.000295189 0)
(0.997593 5.16369e-05 0)
(0.997449 0.000307495 0)
(0.997518 6.04986e-05 0)
(0.997383 0.000321331 0)
(0.997445 7.07177e-05 0)
(0.997303 0.000336555 0)
(0.997347 8.18492e-05 0)
(0.997192 0.000352658 0)
(0.997219 9.3581e-05 0)
(0.997061 0.000369469 0)
(0.997084 0.000105876 0)
(0.996935 0.000387367 0)
(0.996962 0.000119429 0)
(0.996825 0.000407119 0)
(0.996851 0.000134926 0)
(0.996716 0.000429263 0)
(0.996728 0.000152685 0)
(0.996586 0.000453958 0)
(0.996578 0.000172775 0)
(0.996427 0.000481338 0)
(0.996404 0.000195485 0)
(0.996251 0.000511963 0)
(0.99622 0.000221648 0)
(0.996073 0.000546964 0)
(0.996035 0.000252626 0)
(0.995891 0.000587949 0)
(0.99584 0.000290267 0)
(0.99569 0.000637177 0)
(0.995615 0.000337462 0)
(0.995451 0.000698645 0)
(0.995347 0.000399859 0)
(0.995167 0.000780471 0)
(0.995037 0.000488896 0)
(0.994847 0.000898514 0)
(0.994694 0.000625889 0)
(0.9945 0.0010807 0)
(0.99433 0.000846195 0)
(0.994137 0.00137027 0)
(0.993952 0.00120056 0)
(0.999941 6.66174e-05 0)
(1.00007 -6.92248e-05 0)
(0.999961 7.0207e-05 0)
(1.00007 -6.18124e-05 0)
(0.999948 7.57424e-05 0)
(1.00004 -5.72503e-05 0)
(0.999916 7.63236e-05 0)
(1.00001 -5.82844e-05 0)
(0.999878 7.20455e-05 0)
(0.999967 -6.37611e-05 0)
(0.999848 6.40802e-05 0)
(0.999942 -7.24276e-05 0)
(0.999837 5.39977e-05 0)
(0.99994 -8.19456e-05 0)
(0.999853 4.46298e-05 0)
(0.999968 -8.90933e-05 0)
(0.9999 3.92629e-05 0)
(1.00002 -9.09278e-05 0)
(0.99997 4.02016e-05 0)
(1.0001 -8.58707e-05 0)
(1.00005 4.80763e-05 0)
(1.00017 -7.41681e-05 0)
(1.00011 6.13363e-05 0)
(1.00021 -5.8797e-05 0)
(1.00014 7.56107e-05 0)
(1.0002 -4.51094e-05 0)
(1.0001 8.52394e-05 0)
(1.00014 -3.84342e-05 0)
(1.00002 8.63633e-05 0)
(1.00004 -4.07001e-05 0)
(0.999918 7.90366e-05 0)
(0.999939 -5.01393e-05 0)
(0.999833 6.66552e-05 0)
(0.999877 -6.20254e-05 0)
(0.999804 5.51157e-05 0)
(0.999883 -6.97243e-05 0)
(0.999847 5.07749e-05 0)
(0.999954 -6.87589e-05 0)
(0.999938 5.56374e-05 0)
(1.00005 -5.93135e-05 0)
(1.00002 6.77316e-05 0)
(1.00011 -4.55108e-05 0)
(1.00005 8.0473e-05 0)
(1.00009 -3.49507e-05 0)
(0.999993 8.67047e-05 0)
(0.999995 -3.33598e-05 0)
(0.999874 8.33841e-05 0)
(0.999866 -4.03345e-05 0)
(0.999759 7.37486e-05 0)
(0.999777 -5.0594e-05 0)
(0.999713 6.43218e-05 0)
(0.999776 -5.6859e-05 0)
(0.99976 6.18152e-05 0)
(0.999855 -5.44851e-05 0)
(0.999861 6.80997e-05 0)
(0.99995 -4.43149e-05 0)
(0.999935 7.94667e-05 0)
(0.999981 -3.25931e-05 0)
(0.999918 8.82987e-05 0)
(0.999911 -2.69813e-05 0)
(0.999809 8.86959e-05 0)
(0.999776 -3.00527e-05 0)
(0.999676 8.1782e-05 0)
(0.999663 -3.76919e-05 0)
(0.999605 7.37416e-05 0)
(0.999642 -4.30465e-05 0)
(0.999637 7.09555e-05 0)
(0.999713 -4.10611e-05 0)
(0.999732 7.61806e-05 0)
(0.999804 -3.20656e-05 0)
(0.999796 8.6004e-05 0)
(0.999822 -2.21106e-05 0)
(0.999761 9.29917e-05 0)
(0.999736 -1.82733e-05 0)
(0.999639 9.25257e-05 0)
(0.999599 -2.16882e-05 0)
(0.999512 8.66143e-05 0)
(0.999507 -2.78318e-05 0)
(0.99947 8.1418e-05 0)
(0.999517 -3.02431e-05 0)
(0.999525 8.2361e-05 0)
(0.999598 -2.56658e-05 0)
(0.999607 8.98499e-05 0)
(0.999655 -1.6691e-05 0)
(0.99962 9.86546e-05 0)
(0.999613 -1.0069e-05 0)
(0.999529 0.000102349 0)
(0.999488 -1.00581e-05 0)
(0.999394 9.97928e-05 0)
(0.999369 -1.4595e-05 0)
(0.999314 9.53566e-05 0)
(0.999339 -1.80081e-05 0)
(0.999334 9.48408e-05 0)
(0.999395 -1.56487e-05 0)
(0.999406 0.000100547 0)
(0.999454 -8.14731e-06 0)
(0.999431 0.000109006 0)
(0.999429 -9.92912e-07 0)
(0.999358 0.000114204 0)
(0.999316 1.05096e-06 0)
(0.99923 0.000113875 0)
(0.999195 -1.3484e-06 0)
(0.999141 0.00011112 0)
(0.999147 -3.52168e-06 0)
(0.999141 0.000111049 0)
(0.999181 -1.158e-06 0)
(0.999192 0.000116096 0)
(0.999224 5.63607e-06 0)
(0.999208 0.000123736 0)
(0.999196 1.2655e-05 0)
(0.999138 0.000129241 0)
(0.999091 1.59278e-05 0)
(0.99902 0.000130464 0)
(0.998977 1.55979e-05 0)
(0.998933 0.000129641 0)
(0.998927 1.5315e-05 0)
(0.998923 0.000130897 0)
(0.998944 1.85842e-05 0)
(0.998953 0.000136243 0)
(0.998965 2.53851e-05 0)
(0.998949 0.000143732 0)
(0.998924 3.24042e-05 0)
(0.998872 0.000149647 0)
(0.998819 3.65199e-05 0)
(0.998757 0.000152315 0)
(0.998712 3.78945e-05 0)
(0.998676 0.000153618 0)
(0.998663 3.95728e-05 0)
(0.998659 0.000156931 0)
(0.998668 4.43127e-05 0)
(0.99867 0.000163694 0)
(0.998666 5.18444e-05 0)
(0.998642 0.000172066 0)
(0.998606 5.93097e-05 0)
(0.998552 0.000179046 0)
(0.998498 6.44259e-05 0)
(0.998441 0.000183683 0)
(0.998401 6.77832e-05 0)
(0.998366 0.000187882 0)
(0.998354 7.20212e-05 0)
(0.998341 0.000194258 0)
(0.998341 7.89907e-05 0)
(0.998325 0.000203434 0)
(0.998309 8.79735e-05 0)
(0.998268 0.000213633 0)
(0.998227 9.6694e-05 0)
(0.998166 0.000222758 0)
(0.998117 0.000103837 0)
(0.998059 0.000230614 0)
(0.998025 0.000110351 0)
(0.997986 0.00023897 0)
(0.997973 0.000118301 0)
(0.997946 0.000249601 0)
(0.997935 0.0001287 0)
(0.997899 0.000262533 0)
(0.997873 0.000140653 0)
(0.997816 0.000276267 0)
(0.997772 0.000152522 0)
(0.997702 0.000289516 0)
(0.997655 0.00016376 0)
(0.997592 0.000302611 0)
(0.997558 0.000175465 0)
(0.997509 0.000317082 0)
(0.997487 0.000189173 0)
(0.997443 0.000334065 0)
(0.997418 0.000205354 0)
(0.997362 0.000353307 0)
(0.997322 0.000223184 0)
(0.99725 0.000373731 0)
(0.997197 0.00024171 0)
(0.997118 0.000394812 0)
(0.997065 0.000261022 0)
(0.996992 0.000417293 0)
(0.996948 0.00028235 0)
(0.996883 0.000442599 0)
(0.996842 0.000307001 0)
(0.996774 0.000471685 0)
(0.996725 0.000335473 0)
(0.996645 0.000504658 0)
(0.996581 0.000367662 0)
(0.996488 0.000541471 0)
(0.996412 0.000403833 0)
(0.996314 0.000582911 0)
(0.996237 0.000445377 0)
(0.99614 0.000630968 0)
(0.996063 0.000494791 0)
(0.995965 0.000688575 0)
(0.995882 0.00055541 0)
(0.995775 0.00075958 0)
(0.995676 0.000631819 0)
(0.995554 0.000849691 0)
(0.995439 0.00073126 0)
(0.995304 0.00096809 0)
(0.995177 0.000865082 0)
(0.995038 0.00112829 0)
(0.99491 0.00104863 0)
(0.994775 0.00134683 0)
(0.99465 0.00129869 0)
(0.994522 0.00163959 0)
(0.994402 0.00162916 0)
(0.999991 4.91323e-05 0)
(1.00002 -3.42449e-05 0)
(1.00001 5.69631e-05 0)
(1.00002 -2.8474e-05 0)
(0.999995 5.9094e-05 0)
(0.999997 -2.69868e-05 0)
(0.999961 5.70446e-05 0)
(0.999957 -3.0603e-05 0)
(0.999921 4.97332e-05 0)
(0.999918 -3.98607e-05 0)
(0.999888 3.72721e-05 0)
(0.999893 -5.36033e-05 0)
(0.999876 2.20581e-05 0)
(0.999893 -6.80154e-05 0)
(0.999892 8.63987e-06 0)
(0.999923 -7.80763e-05 0)
(0.999939 2.0122e-06 0)
(0.999983 -7.9312e-05 0)
(1.00001 5.47322e-06 0)
(1.00006 -6.97245e-05 0)
(1.00009 1.94584e-05 0)
(1.00013 -5.06283e-05 0)
(1.00015 4.05635e-05 0)
(1.00018 -2.74911e-05 0)
(1.00017 6.16703e-05 0)
(1.00017 -8.42101e-06 0)
(1.00014 7.46186e-05 0)
(1.00011 -6.72614e-07 0)
(1.00005 7.42988e-05 0)
(1.00001 -6.61589e-06 0)
(0.999944 6.12807e-05 0)
(0.999903 -2.30459e-05 0)
(0.999857 4.14745e-05 0)
(0.999842 -4.16535e-05 0)
(0.99983 2.46476e-05 0)
(0.999852 -5.24012e-05 0)
(0.999875 1.98575e-05 0)
(0.999927 -4.91936e-05 0)
(0.999969 2.93659e-05 0)
(1.00003 -3.34168e-05 0)
(1.00006 4.87369e-05 0)
(1.00009 -1.2318e-05 0)
(1.00008 6.78925e-05 0)
(1.00007 2.24909e-06 0)
(1.00002 7.56373e-05 0)
(0.999967 2.58248e-06 0)
(0.999895 6.87179e-05 0)
(0.999836 -1.01257e-05 0)
(0.999777 5.2336e-05 0)
(0.999747 -2.67807e-05 0)
(0.999732 3.80846e-05 0)
(0.999751 -3.56117e-05 0)
(0.999783 3.58185e-05 0)
(0.999836 -3.03488e-05 0)
(0.999886 4.7205e-05 0)
(0.999934 -1.38346e-05 0)
(0.999959 6.52855e-05 0)
(0.999965 3.74406e-06 0)
(0.999938 7.78642e-05 0)
(0.999892 1.06717e-05 0)
(0.999824 7.70414e-05 0)
(0.999755 4.22437e-06 0)
(0.999687 6.50884e-05 0)
(0.999642 -8.98555e-06 0)
(0.999617 5.19096e-05 0)
(0.999624 -1.72215e-05 0)
(0.999652 4.87321e-05 0)
(0.999701 -1.29604e-05 0)
(0.99975 5.80889e-05 0)
(0.999794 1.47472e-06 0)
(0.999814 7.3428e-05 0)
(0.999812 1.61347e-05 0)
(0.999776 8.33853e-05 0)
(0.999721 2.08922e-05 0)
(0.999649 8.16074e-05 0)
(0.999581 1.43471e-05 0)
(0.999521 7.15042e-05 0)
(0.999489 4.01769e-06 0)
(0.999481 6.32995e-05 0)
(0.999504 5.49725e-07 0)
(0.99954 6.54015e-05 0)
(0.999589 8.1654e-06 0)
(0.999625 7.72697e-05 0)
(0.999646 2.18075e-05 0)
(0.999636 9.02695e-05 0)
(0.999602 3.1219e-05 0)
(0.99954 9.50479e-05 0)
(0.999473 3.03975e-05 0)
(0.999402 9.01447e-05 0)
(0.999353 2.26396e-05 0)
(0.999323 8.26999e-05 0)
(0.999325 1.73031e-05 0)
(0.999347 8.19443e-05 0)
(0.999386 2.12198e-05 0)
(0.999421 9.0696e-05 0)
(0.999447 3.26406e-05 0)
(0.999446 0.000103086 0)
(0.999421 4.30508e-05 0)
(0.999369 0.000110153 0)
(0.999306 4.55242e-05 0)
(0.999237 0.000108692 0)
(0.999183 4.11659e-05 0)
(0.999146 0.000103645 0)
(0.999138 3.74919e-05 0)
(0.999149 0.00010312 0)
(0.999176 4.10487e-05 0)
(0.999203 0.000110496 0)
(0.999221 5.12726e-05 0)
(0.999218 0.000121567 0)
(0.999193 6.15025e-05 0)
(0.999145 0.000129035 0)
(0.999085 6.57774e-05 0)
(0.999023 0.00012981 0)
(0.998971 6.44849e-05 0)
(0.998936 0.000127532 0)
(0.998923 6.3487e-05 0)
(0.998928 0.000128708 0)
(0.998944 6.81328e-05 0)
(0.998961 0.000136208 0)
(0.998967 7.8124e-05 0)
(0.998956 0.000146767 0)
(0.998925 8.81684e-05 0)
(0.998877 0.000154582 0)
(0.998817 9.3549e-05 0)
(0.998759 0.000157272 0)
(0.99871 9.47265e-05 0)
(0.998678 0.000157963 0)
(0.998663 9.65799e-05 0)
(0.998664 0.000161927 0)
(0.998671 0.000103273 0)
(0.998677 0.000171137 0)
(0.99867 0.000114116 0)
(0.998649 0.000182526 0)
(0.998609 0.0001246 0)
(0.998557 0.000191478 0)
(0.998499 0.000131294 0)
(0.998445 0.000196673 0)
(0.9984 0.000135276 0)
(0.998371 0.000201203 0)
(0.998355 0.000140714 0)
(0.998349 0.000209104 0)
(0.998345 0.000150387 0)
(0.998335 0.000221184 0)
(0.998313 0.000163009 0)
(0.998278 0.000234531 0)
(0.998231 0.000174964 0)
(0.998175 0.000245896 0)
(0.998119 0.000184289 0)
(0.998068 0.000255101 0)
(0.998028 0.000192576 0)
(0.997997 0.000264978 0)
(0.997977 0.000203066 0)
(0.997959 0.000278262 0)
(0.997942 0.000217266 0)
(0.997914 0.000294883 0)
(0.99788 0.000233666 0)
(0.997831 0.000312407 0)
(0.997778 0.000249677 0)
(0.997717 0.000328852 0)
(0.997662 0.000264498 0)
(0.997607 0.000344789 0)
(0.997566 0.000279875 0)
(0.997527 0.000362614 0)
(0.997498 0.000298185 0)
(0.997464 0.000384043 0)
(0.997431 0.000320088 0)
(0.997385 0.000408604 0)
(0.997337 0.000344242 0)
(0.997274 0.000434579 0)
(0.997213 0.000369149 0)
(0.997143 0.000461181 0)
(0.997083 0.000395001 0)
(0.99702 0.000489573 0)
(0.996969 0.000423664 0)
(0.996914 0.000521874 0)
(0.996868 0.000457034 0)
(0.996811 0.0005594 0)
(0.996756 0.000495706 0)
(0.996686 0.000602125 0)
(0.996617 0.000539332 0)
(0.996534 0.000649799 0)
(0.996455 0.000588164 0)
(0.996367 0.000703471 0)
(0.996289 0.000644169 0)
(0.996204 0.000765979 0)
(0.996128 0.000710869 0)
(0.996044 0.000841316 0)
(0.995965 0.00079254 0)
(0.995874 0.000933964 0)
(0.995785 0.000893904 0)
(0.995683 0.00104902 0)
(0.995583 0.00102057 0)
(0.995474 0.00119272 0)
(0.99537 0.00117941 0)
(0.995262 0.00137238 0)
(0.995163 0.00137779 0)
(0.995063 0.00159494 0)
(0.994974 0.00162165 0)
(0.994883 0.00186474 0)
(0.9948 0.00191322 0)
(0.999999 3.41981e-05 0)
(1.00001 -6.83065e-06 0)
(1.00001 4.68452e-05 0)
(1.00001 -1.63257e-06 0)
(0.999996 4.61983e-05 0)
(0.999983 -3.92256e-06 0)
(0.999961 4.1032e-05 0)
(0.999942 -1.04967e-05 0)
(0.999919 3.10058e-05 0)
(0.999902 -2.30244e-05 0)
(0.999885 1.50961e-05 0)
(0.999876 -4.08469e-05 0)
(0.999872 -4.11468e-06 0)
(0.999877 -5.93693e-05 0)
(0.999889 -2.06105e-05 0)
(0.99991 -7.17826e-05 0)
(0.999938 -2.78553e-05 0)
(0.999973 -7.2232e-05 0)
(1.00001 -2.14525e-05 0)
(1.00005 -5.81715e-05 0)
(1.0001 -1.23786e-06 0)
(1.00013 -3.21686e-05 0)
(1.00016 2.73344e-05 0)
(1.00018 -2.30023e-06 0)
(1.00018 5.4347e-05 0)
(1.00017 2.07622e-05 0)
(1.00014 6.97011e-05 0)
(1.0001 2.86397e-05 0)
(1.00005 6.7657e-05 0)
(0.999993 1.87479e-05 0)
(0.999935 4.93154e-05 0)
(0.999887 -4.1349e-06 0)
(0.999847 2.31475e-05 0)
(0.999827 -2.83246e-05 0)
(0.999823 2.85836e-06 0)
(0.999841 -4.08106e-05 0)
(0.999875 -1.19334e-06 0)
(0.999922 -3.49059e-05 0)
(0.999974 1.33343e-05 0)
(1.00002 -1.29461e-05 0)
(1.00006 3.94639e-05 0)
(1.00009 1.40645e-05 0)
(1.00009 6.33771e-05 0)
(1.00006 3.11694e-05 0)
(1.00002 7.17391e-05 0)
(0.999955 2.96467e-05 0)
(0.999887 6.12508e-05 0)
(0.99982 1.16706e-05 0)
(0.999767 3.94052e-05 0)
(0.999733 -1.02015e-05 0)
(0.999725 2.17188e-05 0)
(0.999743 -2.05382e-05 0)
(0.999782 2.05372e-05 0)
(0.999834 -1.20572e-05 0)
(0.999889 3.70477e-05 0)
(0.999936 1.03001e-05 0)
(0.999963 6.08689e-05 0)
(0.999964 3.21142e-05 0)
(0.999936 7.59184e-05 0)
(0.999885 3.93445e-05 0)
(0.999815 7.34125e-05 0)
(0.999743 2.94013e-05 0)
(0.999675 5.69643e-05 0)
(0.999629 1.15776e-05 0)
(0.999607 4.02454e-05 0)
(0.999617 1.5449e-06 0)
(0.999649 3.7513e-05 0)
(0.9997 8.31873e-06 0)
(0.999752 5.11816e-05 0)
(0.999796 2.77348e-05 0)
(0.999816 7.13473e-05 0)
(0.99981 4.59021e-05 0)
(0.999773 8.32529e-05 0)
(0.999714 5.06425e-05 0)
(0.999641 7.97171e-05 0)
(0.999569 4.08285e-05 0)
(0.999511 6.60201e-05 0)
(0.999478 2.71833e-05 0)
(0.999475 5.59827e-05 0)
(0.999498 2.34329e-05 0)
(0.999541 5.9965e-05 0)
(0.999588 3.43584e-05 0)
(0.999629 7.62557e-05 0)
(0.999646 5.21877e-05 0)
(0.999637 9.27241e-05 0)
(0.999596 6.35324e-05 0)
(0.999536 9.79074e-05 0)
(0.999462 6.13946e-05 0)
(0.999394 9.0637e-05 0)
(0.99934 5.07596e-05 0)
(0.999316 8.09342e-05 0)
(0.999318 4.42856e-05 0)
(0.999345 8.07491e-05 0)
(0.999385 5.02679e-05 0)
(0.999424 9.28472e-05 0)
(0.999448 6.5482e-05 0)
(0.999448 0.000108783 0)
(0.999419 7.85076e-05 0)
(0.999365 0.000117169 0)
(0.999298 8.09042e-05 0)
(0.999229 0.000114411 0)
(0.999173 7.4653e-05 0)
(0.999138 0.000107554 0)
(0.999132 7.00122e-05 0)
(0.999146 0.000107266 0)
(0.999176 7.52222e-05 0)
(0.999204 0.000117381 0)
(0.999224 8.89125e-05 0)
(0.999218 0.000131801 0)
(0.999193 0.000101951 0)
(0.999141 0.000140927 0)
(0.999081 0.000106793 0)
(0.999015 0.000141119 0)
(0.998964 0.000104458 0)
(0.998928 0.000137726 0)
(0.998919 0.000103064 0)
(0.998924 0.000139394 0)
(0.998945 0.000109452 0)
(0.998961 0.000149476 0)
(0.99897 0.000122694 0)
(0.998957 0.000163152 0)
(0.998926 0.000135466 0)
(0.998874 0.000172715 0)
(0.998814 0.000141757 0)
(0.998753 0.000175411 0)
(0.998705 0.000142688 0)
(0.998673 0.000175864 0)
(0.998661 0.000144996 0)
(0.998663 0.000181032 0)
(0.998673 0.00015394 0)
(0.99868 0.000193102 0)
(0.998674 0.000168119 0)
(0.998652 0.00020761 0)
(0.99861 0.000181358 0)
(0.998557 0.000218474 0)
(0.998497 0.000189366 0)
(0.998443 0.000224335 0)
(0.998398 0.000193986 0)
(0.998371 0.000229612 0)
(0.998355 0.000200882 0)
(0.998353 0.000239581 0)
(0.998348 0.000213494 0)
(0.998342 0.000254959 0)
(0.998318 0.000229745 0)
(0.998285 0.000271605 0)
(0.998233 0.000244741 0)
(0.99818 0.000285307 0)
(0.99812 0.000256128 0)
(0.998072 0.000296148 0)
(0.998029 0.000266308 0)
(0.998003 0.00030807 0)
(0.997981 0.000279615 0)
(0.997969 0.000324572 0)
(0.99795 0.000297807 0)
(0.997928 0.000345275 0)
(0.997889 0.000318621 0)
(0.997844 0.000366796 0)
(0.997786 0.00033862 0)
(0.997729 0.000386643 0)
(0.997669 0.00035696 0)
(0.99762 0.000405801 0)
(0.997576 0.000376131 0)
(0.997543 0.000427517 0)
(0.997512 0.000399235 0)
(0.997484 0.000453921 0)
(0.997449 0.000426951 0)
(0.997409 0.000484191 0)
(0.997357 0.000457358 0)
(0.997298 0.000516003 0)
(0.997234 0.000488521 0)
(0.997169 0.000548432 0)
(0.997106 0.000520842 0)
(0.997049 0.000583134 0)
(0.996998 0.000556826 0)
(0.99695 0.000622846 0)
(0.996903 0.000598828 0)
(0.996853 0.000669097 0)
(0.996799 0.000647403 0)
(0.996735 0.000721639 0)
(0.996667 0.000701926 0)
(0.996589 0.000780017 0)
(0.996513 0.000762625 0)
(0.996432 0.000845484 0)
(0.996359 0.00083187 0)
(0.996283 0.000921377 0)
(0.996216 0.000913623 0)
(0.996143 0.00101187 0)
(0.996076 0.0010119 0)
(0.995999 0.00112059 0)
(0.995925 0.00112988 0)
(0.995838 0.00125038 0)
(0.995757 0.00127027 0)
(0.995666 0.00140403 0)
(0.995585 0.00143606 0)
(0.995498 0.00158469 0)
(0.995425 0.00163039 0)
(0.995348 0.00179521 0)
(0.995286 0.00185538 0)
(0.995218 0.00203658 0)
(0.995163 0.00211079 0)
(1 2.34476e-05 0)
(1.00001 8.46577e-06 0)
(1.00001 4.02542e-05 0)
(1 1.57478e-05 0)
(0.999988 4.01468e-05 0)
(0.999972 1.20343e-05 0)
(0.999951 3.29609e-05 0)
(0.99993 2.66452e-06 0)
(0.999907 2.02481e-05 0)
(0.999887 -1.29053e-05 0)
(0.999872 1.44891e-06 0)
(0.999861 -3.40011e-05 0)
(0.999858 -2.08629e-05 0)
(0.999862 -5.5811e-05 0)
(0.999877 -3.99609e-05 0)
(0.999898 -7.03157e-05 0)
(0.99993 -4.79446e-05 0)
(0.999967 -7.03667e-05 0)
(1.00001 -3.92731e-05 0)
(1.00005 -5.27662e-05 0)
(1.0001 -1.39509e-05 0)
(1.00013 -2.11224e-05 0)
(1.00016 2.08435e-05 0)
(1.00018 1.44058e-05 0)
(1.00018 5.29661e-05 0)
(1.00016 4.10482e-05 0)
(1.00013 7.05443e-05 0)
(1.00009 4.91144e-05 0)
(1.00003 6.70656e-05 0)
(0.999977 3.59151e-05 0)
(0.999918 4.44419e-05 0)
(0.999868 8.02247e-06 0)
(0.99983 1.3626e-05 0)
(0.99981 -2.03519e-05 0)
(0.99981 -9.36358e-06 0)
(0.999831 -3.41786e-05 0)
(0.999869 -1.27253e-05 0)
(0.999919 -2.59287e-05 0)
(0.999975 5.94797e-06 0)
(1.00003 9.26326e-07 0)
(1.00007 3.73157e-05 0)
(1.00009 3.22235e-05 0)
(1.00008 6.4525e-05 0)
(1.00006 5.13202e-05 0)
(1.00001 7.33714e-05 0)
(0.999941 4.83379e-05 0)
(0.999871 6.00454e-05 0)
(0.999802 2.66028e-05 0)
(0.999749 3.44961e-05 0)
(0.999717 1.17299e-06 0)
(0.999712 1.44413e-05 0)
(0.999734 -1.011e-05 0)
(0.999777 1.43109e-05 0)
(0.999834 1.12329e-06 0)
(0.999891 3.49324e-05 0)
(0.999939 2.79319e-05 0)
(0.999963 6.28281e-05 0)
(0.999963 5.26577e-05 0)
(0.99993 7.97044e-05 0)
(0.999875 6.00473e-05 0)
(0.999801 7.5826e-05 0)
(0.999726 4.73681e-05 0)
(0.999657 5.61815e-05 0)
(0.999613 2.65115e-05 0)
(0.999593 3.75917e-05 0)
(0.999608 1.55054e-05 0)
(0.999644 3.5533e-05 0)
(0.999699 2.44269e-05 0)
(0.999753 5.27034e-05 0)
(0.999798 4.76471e-05 0)
(0.999817 7.64958e-05 0)
(0.999807 6.84783e-05 0)
(0.999767 8.98805e-05 0)
(0.999702 7.29833e-05 0)
(0.999627 8.47695e-05 0)
(0.999552 6.05896e-05 0)
(0.999495 6.83856e-05 0)
(0.999463 4.47424e-05 0)
(0.999465 5.73032e-05 0)
(0.999491 4.13258e-05 0)
(0.999539 6.32225e-05 0)
(0.999588 5.53633e-05 0)
(0.999631 8.32281e-05 0)
(0.999646 7.67207e-05 0)
(0.999636 0.00010247 0)
(0.99959 8.95756e-05 0)
(0.999526 0.000107717 0)
(0.999448 8.61815e-05 0)
(0.999379 9.84301e-05 0)
(0.999325 7.3443e-05 0)
(0.999304 8.72299e-05 0)
(0.999308 6.65243e-05 0)
(0.999341 8.79749e-05 0)
(0.999383 7.47477e-05 0)
(0.999425 0.000103195 0)
(0.999449 9.33019e-05 0)
(0.999447 0.000122083 0)
(0.999415 0.000108395 0)
(0.999357 0.000131362 0)
(0.999287 0.000110445 0)
(0.999215 0.000127409 0)
(0.99916 0.000102683 0)
(0.999126 0.00011938 0)
(0.999124 9.76618e-05 0)
(0.99914 0.000119883 0)
(0.999175 0.000104837 0)
(0.999204 0.000132885 0)
(0.999226 0.000121762 0)
(0.999218 0.000150357 0)
(0.999191 0.000137135 0)
(0.999135 0.000160823 0)
(0.999073 0.000142224 0)
(0.999003 0.000160483 0)
(0.998954 0.000139018 0)
(0.998917 0.000156459 0)
(0.998912 0.000137673 0)
(0.99892 0.000159179 0)
(0.998945 0.000146128 0)
(0.998962 0.000172094 0)
(0.998973 0.000162521 0)
(0.998958 0.000188736 0)
(0.998925 0.000177674 0)
(0.998869 0.000199813 0)
(0.998808 0.000184653 0)
(0.998745 0.000202579 0)
(0.998697 0.00018551 0)
(0.998666 0.000203202 0)
(0.998656 0.000188695 0)
(0.998662 0.000210052 0)
(0.998674 0.000200195 0)
(0.998683 0.000225174 0)
(0.998678 0.000217664 0)
(0.998655 0.000242652 0)
(0.99861 0.000233403 0)
(0.998556 0.000255241 0)
(0.998492 0.000242621 0)
(0.998439 0.000261859 0)
(0.998393 0.000248117 0)
(0.998369 0.000268268 0)
(0.998355 0.000256896 0)
(0.998357 0.000280704 0)
(0.998353 0.000272709 0)
(0.998349 0.000299492 0)
(0.998324 0.000292546 0)
(0.998291 0.000319318 0)
(0.998237 0.000310439 0)
(0.998183 0.000335294 0)
(0.99812 0.000323931 0)
(0.998074 0.000347975 0)
(0.998031 0.000336315 0)
(0.998009 0.000362344 0)
(0.997988 0.00035281 0)
(0.99798 0.000382389 0)
(0.997961 0.00037515 0)
(0.997941 0.000407237 0)
(0.997901 0.000400288 0)
(0.997857 0.000432679 0)
(0.997797 0.000424157 0)
(0.997741 0.00045596 0)
(0.99768 0.000446076 0)
(0.997633 0.000478593 0)
(0.997589 0.000469268 0)
(0.997561 0.000504548 0)
(0.997531 0.000497351 0)
(0.997507 0.000536144 0)
(0.997474 0.000530843 0)
(0.997435 0.000572128 0)
(0.997383 0.000567282 0)
(0.997326 0.000609697 0)
(0.997262 0.000604458 0)
(0.997199 0.000647937 0)