/*--------------------------------*- C++ -*----------------------------------*\
| =========                 |                                                 |
| \\      /  F ield         | OpenFOAM: The Open Source CFD Toolbox           |
|  \\    /   O peration     | Version:  v1912                                 |
|   \\  /    A nd           | Website:  www.openfoam.com                      |
|    \\/     M anipulation  |                                                 |
\*---------------------------------------------------------------------------*/
FoamFile
{
    version     2.0;
    format      ascii;
    class       volScalarField;
    location    "0.2";
    object      p;
}
// * * * * * * * * * * * * * * * * * * * * * * * * * * * * * * * * * * * * * //

dimensions      [0 2 -2 0 0 0 0];


internalField   nonuniform List<scalar> 
12000
(
2.01933e-07
-4.47968e-06
4.66189e-07
1.53916e-05
3.91491e-05
6.95649e-05
0.000103525
0.000137394
0.000167491
0.000189914
0.00020103
0.000197474
0.000177062
0.000138979
8.44297e-05
1.62043e-05
-6.0442e-05
-0.000138598
-0.000209805
-0.000264967
-0.00029583
-0.000296156
-0.000263522
-0.000199514
-0.000110592
-8.04929e-06
9.33286e-05
0.00017776
0.000230601
0.000241987
0.000208503
0.000135108
3.47999e-05
-7.34131e-05
-0.000167865
-0.000227978
-0.000239311
-0.000196743
-0.000106408
1.46849e-05
0.000141786
0.000247821
0.000308869
0.000310501
0.000251579
0.000146391
2.17863e-05
-8.86454e-05
-0.000153269
-0.000151363
-7.9747e-05
4.51203e-05
0.000190309
0.000316059
0.000387651
0.000387061
0.000318111
0.000204658
8.2529e-05
-1.0019e-05
-4.29318e-05
-2.58189e-06
0.000103082
0.000244986
0.000380744
0.000468358
0.00048074
0.000416966
0.00030226
0.000179838
9.55122e-05
8.19139e-05
0.000146821
0.000270659
0.000412955
0.00052709
0.000576375
0.000548168
0.00045788
0.000343885
0.000253391
0.00022508
0.000274001
0.000385939
0.000521993
0.000634279
0.000684452
0.000659271
0.000574983
0.000471198
0.000394967
0.00038221
0.000442905
0.000557454
0.000684339
0.000777875
0.000806791
0.000767552
0.000684707
0.000600769
0.000557969
0.000580676
0.000664834
0.000780471
0.000884518
0.000940115
0.000931988
0.000873222
0.000798352
0.000748489
0.000752865
0.000816614
0.000918541
0.00102157
0.00108912
0.00110196
0.00106563
0.00100787
0.000964853
0.00096526
0.00101702
0.00110484
0.00119744
0.00126288
0.00128263
0.00126031
0.00121849
0.00118834
0.0011944
0.00124404
0.00132423
0.0014089
0.00147102
0.00149578
0.0014862
0.00146162
0.00144711
0.00146221
0.00151139
0.00158339
0.00165679
0.00171128
0.00173653
0.00173738
0.00172976
0.00173347
0.00176165
0.0018158
0.00188489
0.00195226
0.00200291
0.00203159
0.00204346
0.00205216
0.00207147
0.00211002
0.0021665
0.00223194
0.00229382
0.00234328
0.00237809
0.0024043
0.00243151
0.00246915
0.00252075
0.002584
0.00265103
0.00271409
0.00276786
0.00281322
0.00285492
0.00290042
0.00295469
0.00301942
0.00309139
0.00316592
0.00323795
0.00330603
0.0033712
0.00343784
0.00350968
0.00358977
0.0036776
0.00377152
0.0038682
0.00396635
0.00406558
0.00416863
0.00427816
0.00439788
0.00452925
0.00467376
0.004831
0.0050022
0.00518829
0.00539312
0.00561998
0.00587396
0.00615739
0.00647224
2.76022e-06
-4.06335e-06
3.25559e-07
1.49801e-05
3.88554e-05
6.92724e-05
0.000103449
0.000137296
0.000167588
0.00019002
0.000201417
0.000197846
0.000177599
0.0001393
8.45858e-05
1.60951e-05
-6.06321e-05
-0.000139045
-0.000210425
-0.000265942
-0.000296801
-0.000297194
-0.000264161
-0.00019978
-0.000110466
-7.81374e-06
9.37896e-05
0.000178236
0.000231264
0.00024243
0.000208814
0.000134964
3.43587e-05
-7.42e-05
-0.000168749
-0.000229052
-0.000240142
-0.000197263
-0.00010643
1.48785e-05
0.000142197
0.000248235
0.000309392
0.000310784
0.000251578
0.000145883
2.09846e-05
-8.97373e-05
-0.000154232
-0.000152131
-7.99766e-05
4.52186e-05
0.000190686
0.000316445
0.000388143
0.00038732
0.000317991
0.000203972
8.15852e-05
-1.1172e-05
-4.38509e-05
-3.06275e-06
0.000103013
0.000245081
0.000381018
0.000468571
0.000480985
0.000416732
0.000301596
0.000178809
9.45052e-05
8.1108e-05
0.000146507
0.000270627
0.000413124
0.00052725
0.000576623
0.000548017
0.000457235
0.00034276
0.000252203
0.000224086
0.00027354
0.000385784
0.000522055
0.000634359
0.000684634
0.000659021
0.000574245
0.000470015
0.000393773
0.000381258
0.000442459
0.000557289
0.000684374
0.000777837
0.000806682
0.000766951
0.000683667
0.000599423
0.000556758
0.00057978
0.000664362
0.000780192
0.000884361
0.000939751
0.000931426
0.000872198
0.000797049
0.000747106
0.000751787
0.000815835
0.000918038
0.00102107
0.00108859
0.00110107
0.00106448
0.00100637
0.000963312
0.000963804
0.00101586
0.00110384
0.00119656
0.0012618
0.00128142
0.00125871
0.00121672
0.00118641
0.0011926
0.00124234
0.00132271
0.00140733
0.0014694
0.00149383
0.0014841
0.00145923
0.0014447
0.00145974
0.00150904
0.00158099
0.00165438
0.00170858
0.0017337
0.00173418
0.00172646
0.00172996
0.00175816
0.00181214
0.00188119
0.00194822
0.00199871
0.00202694
0.00203868
0.00204705
0.0020664
0.00210482
0.00216121
0.00222633
0.00228801
0.00233704
0.00237165
0.00239743
0.00242444
0.00246165
0.00251305
0.0025758
0.00264256
0.00270504
0.00275849
0.00280327
0.00284469
0.00288964
0.00294354
0.0030076
0.00307911
0.00315282
0.00322423
0.00329131
0.00335569
0.00342115
0.003492
0.00357068
0.00365724
0.0037494
0.00384443
0.00394031
0.00403728
0.00413725
0.00424339
0.00435839
0.00448395
0.00462002
0.00476573
0.00491965
0.00508098
0.00524923
0.0054245
0.00560625
0.00579362
0.00598462
4.84336e-06
-5.09835e-06
-1.57872e-06
1.32965e-05
3.81168e-05
6.93582e-05
0.000104441
0.000138857
0.000169753
0.000192393
0.000203926
0.000200104
0.000179519
0.000140466
8.4961e-05
1.54051e-05
-6.23546e-05
-0.000141906
-0.00021401
-0.000269974
-0.000300626
-0.000300452
-0.000266192
-0.000200528
-0.000109703
-5.81094e-06
9.68682e-05
0.000181663
0.000234607
0.000244912
0.000210071
0.000134671
3.2563e-05
-7.7432e-05
-0.000172575
-0.00023287
-0.000243123
-0.000198881
-0.000106287
1.65212e-05
0.000145096
0.000251476
0.000312347
0.000312583
0.000251897
0.000144366
1.79569e-05
-9.36153e-05
-0.000157803
-0.000154614
-8.07458e-05
4.61853e-05
0.000193155
0.00031943
0.00039088
0.000388881
0.000318
0.000202087
7.83643e-05
-1.48978e-05
-4.68752e-05
-4.66785e-06
0.000103251
0.000246807
0.000383613
0.000470991
0.000482548
0.000416674
0.000299822
0.00017565
9.10983e-05
7.84756e-05
0.000145427
0.000271171
0.000415003
0.00052952
0.000578446
0.000548449
0.000456018
0.000339992
0.000248831
0.000221184
0.000272007
0.000385828
0.0005235
0.000636278
0.000686247
0.000659266
0.00057287
0.0004672
0.000390505
0.000378534
0.000441114
0.000557412
0.000685669
0.000779377
0.000807599
0.000766413
0.000681644
0.0005963
0.000553551
0.000577334
0.000663339
0.00078043
0.000885355
0.000940501
0.000931213
0.000870541
0.000794246
0.000743801
0.000748966
0.000814041
0.000917529
0.00102132
0.00108891
0.00110058
0.00106279
0.00100348
0.000959866
0.000960498
0.00101345
0.00110243
0.00119597
0.00126128
0.00128031
0.00125651
0.0012135
0.00118256
0.00118888
0.00123923
0.00132051
0.0014057
0.00146788
0.00149172
0.00148108
0.00145525
0.00144022
0.00145523
0.00150504
0.00157756
0.00165138
0.00170547
0.00173006
0.00172967
0.00172119
0.00172416
0.00175235
0.00180655
0.00187598
0.00194311
0.0019934
0.00202101
0.00203202
0.00203966
0.00205859
0.00209677
0.00215324
0.00221831
0.00227989
0.00232843
0.00236241
0.00238735
0.00241368
0.00245025
0.00250128
0.00256363
0.00263004
0.0026919
0.00274464
0.00278847
0.00282896
0.00287287
0.00292589
0.00298898
0.00305958
0.00313214
0.00320229
0.00326775
0.00333041
0.00339383
0.00346259
0.00353885
0.00362286
0.00371197
0.00380359
0.00389529
0.0039874
0.00408132
0.00418013
0.0042857
0.00439929
0.00451964
0.0046452
0.00477323
0.00490242
0.00503136
0.00516027
0.00528849
0.00541601
0.00554132
2.483e-06
-7.56983e-06
-3.84963e-06
1.18078e-05
3.77586e-05
7.05062e-05
0.000107031
0.000142793
0.00017454
0.000197632
0.000208978
0.000204557
0.000182696
0.000142029
8.46051e-05
1.30611e-05
-6.67858e-05
-0.000148044
-0.000221396
-0.000277674
-0.000307718
-0.000305811
-0.000269166
-0.000200698
-0.000107222
-9.05654e-07
0.000103443
0.000188911
0.000241104
0.000249469
0.000211678
0.000133167
2.81198e-05
-8.40887e-05
-0.000180334
-0.000240009
-0.000248436
-0.000201072
-0.000105095
2.07699e-05
0.000151382
0.000258419
0.00031815
0.000315782
0.000251578
0.000140697
1.15961e-05
-0.000101157
-0.000164779
-0.000159041
-8.15232e-05
4.90296e-05
0.00019862
0.000325919
0.000396358
0.000391686
0.000317195
0.000197926
7.17663e-05
-2.20382e-05
-5.26324e-05
-7.31164e-06
0.000104343
0.000251073
0.000389424
0.000476305
0.000485409
0.00041607
0.000295765
0.000169342
8.42758e-05
7.34814e-05
0.000143705
0.000272913
0.000419365
0.000534724
0.000582217
0.000549326
0.000453388
0.000334619
0.000242227
0.000215576
0.00026928
0.000386552
0.000527036
0.000641077
0.000689696
0.000659988
0.000570162
0.000461869
0.000384187
0.000373396
0.000438751
0.000558225
0.000688791
0.000783098
0.0008098
0.000765849
0.000677937
0.000590543
0.000547538
0.000572986
0.000661743
0.000781564
0.000887953
0.000942794
0.000931371
0.000867902
0.000789197
0.000737829
0.000743827
0.000811145
0.000917143
0.0010227
0.00109038
0.00110057
0.00106027
0.000998642
0.000953774
0.000954807
0.00100945
0.00110068
0.00119585
0.00126151
0.00127932
0.00125341
0.00120823
0.0011761
0.00118257
0.00123433
0.00131744
0.00140407
0.00146645
0.00148929
0.00147676
0.0014491
0.00143294
0.00144803
0.00149885
0.00157279
0.00164756
0.00170171
0.00172527
0.00172329
0.0017132
0.00171527
0.00174341
0.00179836
0.00186866
0.00193635
0.00198634
0.00201297
0.00202249
0.00202881
0.00204684
0.00208485
0.00214157
0.00220703
0.00226854
0.0023165
0.00234929
0.00237288
0.0023979
0.0024336
0.00248407
0.00254615
0.00261213
0.00267332
0.00272486
0.0027672
0.00280596
0.00284827
0.00289977
0.00296157
0.00303078
0.00310182
0.00316997
0.00323307
0.00329285
0.00335318
0.0034185
0.00349117
0.00357111
0.00365566
0.00374176
0.00382694
0.00391102
0.00399538
0.00408259
0.00417444
0.00427163
0.00437283
0.004476
0.00457855
0.00467897
0.00477641
0.00487131
0.00496401
0.00505507
0.00514441
-4.57261e-06
-1.15976e-05
-5.98302e-06
1.12138e-05
3.85329e-05
7.29445e-05
0.00011119
0.000148696
0.000181655
0.000205434
0.000216509
0.00021099
0.000187086
0.000143884
8.33016e-05
8.56666e-06
-7.43645e-05
-0.000158003
-0.000232716
-0.000288883
-0.000317563
-0.000312881
-0.000272669
-0.000199999
-0.000102467
7.31985e-06
0.000113848
0.000199748
0.000250237
0.000255327
0.000213154
0.000129887
2.03662e-05
-9.47681e-05
-0.000192187
-0.000250652
-0.000255405
-0.000203248
-0.000102266
2.8131e-05
0.000161498
0.00026893
0.000326346
0.000319671
0.000250136
0.000134097
1.26618e-06
-0.000112631
-0.000174596
-0.000164635
-8.16713e-05
5.43372e-05
0.000207761
0.000336244
0.000404331
0.000395064
0.000315
0.000190675
6.11935e-05
-3.28478e-05
-6.04225e-05
-1.01182e-05
0.000107021
0.000258326
0.000398758
0.000484469
0.000489152
0.000414241
0.000288607
0.000159056
7.43005e-05
6.68107e-05
0.000142061
0.000276626
0.000426705
0.00054274
0.000587582
0.000549928
0.000448598
0.000325821
0.000232343
0.000207843
0.000265911
0.000388412
0.000532835
0.000648022
0.00069461
0.000660496
0.000565534
0.000453454
0.000374821
0.00036622
0.000435861
0.000560188
0.000694066
0.000788852
0.000812943
0.000764479
0.000671906
0.000581645
0.000538646
0.000566922
0.000660014
0.000783946
0.000892333
0.000946301
0.000931501
0.000863664
0.000781405
0.000728872
0.000736428
0.00080733
0.00091724
0.00102534
0.00109297
0.00110066
0.00105642
0.000991228
0.000944632
0.0009465
0.00100396
0.0010987
0.00119634
0.00126235
0.00127815
0.00124888
0.00120041
0.00116656
0.00117347
0.00122754
0.00131356
0.00140232
0.00146497
0.00148612
0.00147064
0.00144015
0.00142241
0.00143777
0.00149031
0.00156649
0.00164276
0.00169693
0.00171887
0.0017144
0.00170191
0.0017027
0.00173096
0.00178716
0.00185894
0.00192746
0.00197702
0.00200206
0.00200934
0.00201366
0.00203051
0.00206843
0.00212573
0.00219183
0.00225333
0.00230039
0.00233142
0.00235295
0.00237611
0.00241061
0.00246048
0.00252233
0.00258787
0.00264811
0.00269793
0.00273803
0.0027743
0.0028143
0.00286375
0.00292381
0.00299122
0.00306014
0.00312554
0.00318525
0.00324101
0.00329694
0.00335753
0.00342522
0.00349965
0.00357797
0.00365669
0.00373317
0.00380698
0.00387955
0.00395336
0.00403032
0.004111
0.00419414
0.00427756
0.00435883
0.00443648
0.00451005
0.00458023
0.00464791
0.00471401
0.00477864
-1.45706e-05
-1.72417e-05
-8.39041e-06
1.12303e-05
4.04025e-05
7.65867e-05
0.000116561
0.00015589
0.000190329
0.000215055
0.000226029
0.000219339
0.000192957
0.000146422
8.16459e-05
2.51039e-06
-8.45826e-05
-0.000171384
-0.000247803
-0.000303619
-0.000330291
-0.000321866
-0.000276738
-0.000198494
-9.56693e-05
1.84838e-05
0.000127501
0.000213615
0.000261739
0.000262427
0.000214422
0.000124984
9.98332e-06
-0.000108872
-0.000207267
-0.000263673
-0.000263945
-0.000205535
-9.79741e-05
3.80927e-05
0.000174786
0.000282467
0.000336538
0.000324062
0.00024739
0.000124749
-1.2471e-05
-0.000127428
-0.000186814
-0.000171186
-8.09905e-05
6.19433e-05
0.000219888
0.000349151
0.000414132
0.000398745
0.000311118
0.00018023
4.71874e-05
-4.6342e-05
-6.98915e-05
-1.29524e-05
0.000111348
0.000268249
0.000410707
0.000494245
0.000493265
0.000410941
0.000278727
0.000145733
6.16463e-05
5.87093e-05
0.000140825
0.000282227
0.000436588
0.000552924
0.000594007
0.000549824
0.000441496
0.000313881
0.00021944
0.000198115
0.00026227
0.000391555
0.000540785
0.000657021
0.000700543
0.00066039
0.000558777
0.000442098
0.000362647
0.000357272
0.000432846
0.000563448
0.000701291
0.000796172
0.000816445
0.000761807
0.00066323
0.000569589
0.000527081
0.000559477
0.000658486
0.00078761
0.000898205
0.000950541
0.000930967
0.000857309
0.000770662
0.000717024
0.000727077
0.000802944
0.000917972
0.00102907
0.00109622
0.00110018
0.00105062
0.000980847
0.000932351
0.000935715
0.000997207
0.00109659
0.00119726
0.00126334
0.00127619
0.00124232
0.00118964
0.00115381
0.00116166
0.00121898
0.00130884
0.00140018
0.00146287
0.00148149
0.00146204
0.00142791
0.00140834
0.00142433
0.00147934
0.00155847
0.00163656
0.00169049
0.00171012
0.00170229
0.00168678
0.0016861
0.00171475
0.00177271
0.0018464
0.00191584
0.00196463
0.0019874
0.00199172
0.00199351
0.00200903
0.00204699
0.00210514
0.00217204
0.00223344
0.00227914
0.00230778
0.0023266
0.00234741
0.00238044
0.00242965
0.00249123
0.00255621
0.0026151
0.00266261
0.00269971
0.00273273
0.00276974
0.00281664
0.00287448
0.0029396
0.00300577
0.00306757
0.00312285
0.00317344
0.00322377
0.00327848
0.00334004
0.00340787
0.00347884
0.0035491
0.00361588
0.00367869
0.00373912
0.0037998
0.00386282
0.00392877
0.00399644
0.00406355
0.00412772
0.00418757
0.00424289
0.00429462
0.00434407
0.00439221
0.00443921
-2.55521e-05
-2.41742e-05
-1.18459e-05
1.07247e-05
4.24439e-05
8.0939e-05
0.000123047
0.000164391
0.000200473
0.000226296
0.000237354
0.000229535
0.000200536
0.000150053
8.02705e-05
-4.31003e-06
-9.67067e-05
-0.000187634
-0.000266344
-0.000322213
-0.000346321
-0.000333267
-0.00028195
-0.000196775
-8.73046e-05
3.22114e-05
0.000144236
0.000230504
0.000275714
0.000271
0.00021587
0.000118943
-2.67666e-06
-0.000125911
-0.000225463
-0.000279486
-0.00027431
-0.000208346
-9.27584e-05
5.00617e-05
0.00019066
0.000298392
0.000348658
0.00032924
0.000244055
0.000113535
-2.90495e-05
-0.000145247
-0.000201451
-0.000178944
-8.00612e-05
7.10438e-05
0.000234288
0.000364456
0.000425663
0.000402794
0.00030624
0.000167644
3.0426e-05
-6.26352e-05
-8.12122e-05
-1.62334e-05
0.00011669
0.000280123
0.000424865
0.000505704
0.000497844
0.000406698
0.000266706
0.000129641
4.64675e-05
4.91968e-05
0.00013967
0.00028917
0.00044848
0.000564926
0.000601194
0.000548979
0.000432314
0.000299104
0.000203754
0.00018657
0.000258291
0.000395692
0.000550475
0.000667627
0.000707072
0.00065946
0.000549951
0.00042802
0.000347942
0.000346828
0.000429745
0.00056775
0.000710012
0.00080454
0.000819784
0.000757536
0.000651885
0.000554558
0.000513155
0.00055091
0.000657131
0.000792224
0.000905008
0.000954856
0.000929219
0.000848594
0.000757031
0.00070257
0.000716118
0.000798137
0.00091914
0.00103337
0.00109938
0.00109846
0.00104242
0.000967414
0.000917109
0.000922724
0.000989289
0.00109412
0.00119806
0.00126372
0.00127268
0.00123323
0.00117576
0.00113797
0.00114732
0.00120869
0.00130303
0.00139707
0.00145934
0.00147461
0.00145034
0.00141205
0.00139067
0.00140772
0.00146582
0.00154833
0.00162828
0.00168154
0.00169818
0.00168633
0.00166742
0.00166523
0.00169456
0.00175462
0.00183041
0.00190063
0.00194821
0.00196809
0.00196887
0.00196778
0.00198188
0.00202
0.00207914
0.00214683
0.00220787
0.00225174
0.0022774
0.00229292
0.00231098
0.0023423
0.00239073
0.0024519
0.00251605
0.00257314
0.00261773
0.00265114
0.00268025
0.00271367
0.0027575
0.00281264
0.00287494
0.00293769
0.00299513
0.00304508
0.0030896
0.00313345
0.00318151
0.0032363
0.00329704
0.00336029
0.00342192
0.00347904
0.00353121
0.00358024
0.00362898
0.00367973
0.00373312
0.00378793
0.00384179
0.00389236
0.00393827
0.0039796
0.00401753
0.00405353
0.00408866
0.00412315
-3.6545e-05
-3.20327e-05
-1.65263e-05
9.26785e-06
4.40763e-05
8.55636e-05
0.0001304
0.000174162
0.000212107
0.000239092
0.000250238
0.00024127
0.000209609
0.000154874
7.95632e-05
-1.12763e-05
-0.00010989
-0.000205984
-0.000287931
-0.000344338
-0.000365997
-0.000347697
-0.000289182
-0.000195705
-7.81001e-05
4.8039e-05
0.000163904
0.000250533
0.000292534
0.000281491
0.000217966
0.000112108
-1.73908e-05
-0.000145837
-0.000246908
-0.00029829
-0.000286822
-0.000212083
-8.71347e-05
6.36005e-05
0.000208868
0.000316869
0.000362895
0.000335543
0.000240622
0.000100929
-4.80437e-05
-0.000166
-0.000218747
-0.000188447
-7.95522e-05
8.10698e-05
0.000250642
0.00038211
0.000439123
0.000407796
0.000300978
0.000153384
1.10132e-05
-8.18095e-05
-9.48002e-05
-2.05878e-05
0.000122347
0.000293446
0.000441019
0.000518886
0.000503172
0.000401895
0.000252876
0.00011094
2.87521e-05
3.79505e-05
0.000138021
0.00029686
0.000461955
0.000578537
0.000609196
0.000547693
0.000421433
0.000281769
0.000185432
0.000173085
0.000253551
0.000400259
0.000561359
0.000679421
0.000714038
0.000657824
0.000539316
0.000411487
0.000330927
0.000334879
0.000426244
0.000572596
0.000719669
0.000813458
0.00082272
0.000751733
0.000638138
0.000536876
0.000497077
0.000541131
0.000655536
0.000797175
0.000912062
0.000958716
0.000926047
0.000837622
0.000740804
0.000685825
0.000703636
0.00079265
0.00092017
0.00103749
0.00110176
0.00109506
0.00103175
0.000951124
0.000899171
0.000907618
0.000979946
0.00109069
0.00119789
0.00126269
0.00126706
0.00122142
0.00115887
0.00111923
0.00113053
0.00119643
0.00129552
0.00139215
0.00145354
0.00146483
0.00143521
0.00139251
0.00136939
0.0013878
0.00144931
0.00153534
0.001617
0.00166921
0.00168237
0.00166608
0.00164355
0.00163986
0.00166999
0.00173226
0.00181011
0.00188086
0.00192681
0.00194333
0.00194021
0.00193599
0.00194859
0.00198683
0.00204693
0.00211524
0.0021756
0.00221721
0.00223942
0.00225122
0.00226617
0.00229549
0.0023429
0.00240337
0.00246633
0.00252117
0.00256232
0.00259148
0.00261613
0.00264545
0.00268572
0.00273767
0.00279667
0.00285547
0.002908
0.00295207
0.00299
0.00302695
0.00306806
0.00311593
0.00316959
0.00322535
0.00327877
0.00332689
0.00336932
0.00340811
0.00344637
0.0034866
0.00352948
0.00357377
0.00361701
0.00365683
0.00369198
0.00372267
0.00375023
0.00377627
0.00380194
0.0038275
-4.71753e-05
-4.04569e-05
-2.21979e-05
6.78551e-06
4.50347e-05
9.00259e-05
0.000138171
0.000184888
0.00022504
0.000253233
0.000264437
0.000254234
0.00021985
0.00016078
7.96876e-05
-1.78756e-05
-0.00012335
-0.000225522
-0.000311647
-0.000369414
-0.000389137
-0.000365547
-0.000299177
-0.000196268
-6.91149e-05
6.51108e-05
0.000186031
0.000273679
0.000312409
0.000294389
0.000221345
0.00010512
-3.36383e-05
-0.000168428
-0.000271548
-0.000320233
-0.000301846
-0.000217312
-8.17128e-05
7.8235e-05
0.000229161
0.00033788
0.000379406
0.000343364
0.000237501
8.72177e-05
-6.93056e-05
-0.00018963
-0.00023886
-0.000200062
-7.99404e-05
9.159e-05
0.00026867
0.000402012
0.000454649
0.000414009
0.000295659
0.000137671
-1.09042e-05
-0.000103863
-0.000110924
-2.65108e-05
0.000127745
0.000307763
0.000458945
0.000533873
0.000509597
0.000396973
0.000237605
8.98411e-05
8.36551e-06
2.45029e-05
0.000135237
0.000304693
0.000476584
0.000593645
0.000618292
0.000546497
0.000409389
0.000262225
0.000164492
0.000157291
0.000247394
0.000404527
0.000572844
0.000692123
0.000721553
0.000655858
0.000527307
0.000392831
0.000311619
0.000321047
0.000421662
0.000577212
0.000729616
0.00082265
0.000825402
0.00074484
0.000622504
0.000516879
0.000478755
0.000529605
0.000652877
0.000801597
0.000918732
0.00096192
0.000921655
0.00082482
0.000722372
0.000666864
0.000689255
0.000785727
0.000920129
0.00104061
0.0011029
0.00108998
0.00101892
0.000932341
0.000878673
0.000890107
0.000968467
0.00108533
0.00119583
0.0012596
0.00125913
0.001207
0.00113917
0.00109764
0.00111096
0.00118149
0.00128536
0.00138449
0.0014448
0.00145183
0.00141661
0.00136929
0.00134432
0.00136407
0.00142898
0.0015185
0.00160178
0.00165278
0.00166227
0.00164133
0.00161498
0.00160961
0.00164039
0.0017047
0.00178446
0.00185554
0.00189966
0.00191259
0.00190532
0.00189773
0.00190859
0.00194672
0.00200755
0.00207626
0.00213572
0.0021748
0.00219325
0.00220097
0.00221241
0.00223933
0.0022853
0.0023447
0.00240613
0.00245839
0.00249576
0.00252029
0.00254007
0.00256484
0.00260112
0.00264949
0.00270483
0.00275941
0.0028068
0.00284482
0.00287605
0.00290603
0.00294022
0.00298134
0.00302829
0.0030771
0.00312308
0.00316313
0.00319694
0.00322679
0.00325604
0.00328738
0.00332159
0.00335738
0.00339224
0.00342375
0.00345066
0.00347325
0.00349298
0.00351159
0.00353031
0.00354945
-5.73132e-05
-4.90634e-05
-2.84816e-05
3.52643e-06
4.52726e-05
9.40427e-05
0.000145889
0.000195908
0.000238625
0.000268316
0.000279702
0.000268206
0.000231018
0.000167592
8.0673e-05
-2.38e-05
-0.000136536
-0.000245354
-0.000336445
-0.000396479
-0.000415009
-0.00038666
-0.000312289
-0.000199385
-6.16227e-05
8.20745e-05
0.000209508
0.000299394
0.000335509
0.00031019
0.0002268
9.89252e-05
-5.05836e-05
-0.000193069
-0.000299159
-0.000345456
-0.000319839
-0.000224681
-7.72134e-05
9.33063e-05
0.000251053
0.000361187
0.000398292
0.00035294
0.000235042
7.28243e-05
-9.24117e-05
-0.000215947
-0.000261977
-0.000214288
-8.19072e-05
0.000101925
0.000287841
0.00042391
0.000472349
0.000421828
0.00029081
0.000121063
-3.48979e-05
-0.000128705
-0.000129865
-3.45948e-05
0.000132165
0.000322444
0.000478287
0.000550694
0.000517487
0.000392475
0.000221402
6.66069e-05
-1.48314e-05
8.35927e-06
0.000130609
0.000311948
0.000491828
0.000610105
0.000628757
0.00054595
0.000396787
0.000240898
0.000140938
0.000138733
0.000239041
0.000407635
0.000584264
0.000705495
0.000729834
0.000654092
0.000514527
0.000372397
0.000289863
0.000304662
0.000415017
0.000580614
0.000739216
0.000832022
0.000828239
0.000737539
0.000605604
0.000494783
0.000457834
0.000515478
0.000648071
0.000804556
0.000924566
0.000964588
0.000916583
0.000810822
0.000702072
0.000645464
0.000672179
0.000776228
0.000917909
0.00104204
0.00110269
0.00108357
0.00100445
0.000911403
0.000855459
0.000869479
0.000953753
0.00107691
0.0011911
0.00125421
0.00124906
0.00119033
0.00111685
0.00107294
0.00108784
0.00116277
0.00127144
0.00137327
0.00143274
0.00143561
0.00139462
0.00134232
0.00131502
0.00133567
0.00140375
0.00149675
0.00158184
0.00163183
0.00163771
0.00161194
0.00158137
0.00157381
0.00160477
0.00167084
0.00175239
0.00182386
0.00186622
0.00187553
0.00186387
0.0018525
0.00186114
0.00189875
0.00196002
0.00202901
0.00208753
0.00212402
0.00213852
0.00214177
0.0021492
0.00217315
0.00221719
0.00227515
0.00233484
0.00238437
0.00241782
0.00243752
0.00245214
0.002472
0.00250395
0.00254848
0.00260005
0.00265041
0.00269277
0.00272487
0.00274954
0.00277273
0.00280026
0.002835
0.00287578
0.00291837
0.00295782
0.00299086
0.00301724
0.00303941
0.003061
0.00308493
0.00311207
0.00314114
0.00316951
0.00319465
0.00321523
0.00323161
0.00324534
0.00325833
0.00327187
0.00328632
-6.69946e-05
-5.75982e-05
-3.50371e-05
-2.13876e-07
4.49512e-05
9.75109e-05
0.000153223
0.00020675
0.000252317
0.000283763
0.00029554
0.000282857
0.000242892
0.000175139
8.24496e-05
-2.89029e-05
-0.000149063
-0.000264815
-0.000361369
-0.00042434
-0.000442613
-0.000410298
-0.000328536
-0.000205594
-5.67163e-05
9.74457e-05
0.000232804
0.000326344
0.000360932
0.000329118
0.000235116
9.46709e-05
-6.69584e-05
-0.000218671
-0.000329122
-0.000373873
-0.000341164
-0.000234943
-7.46558e-05
0.000107715
0.000273622
0.000386256
0.000419541
0.000364881
0.000234262
5.89422e-05
-0.000116484
-0.000244544
-0.000288182
-0.000231715
-8.63999e-05
0.000111009
0.00030724
0.000447288
0.000492191
0.000431716
0.000287208
0.000104393
-6.03699e-05
-0.000156135
-0.000151911
-4.55226e-05
0.000134707
0.000336605
0.000498429
0.00056916
0.000527122
0.000389004
0.000204938
4.16891e-05
-4.07785e-05
-1.08933e-05
0.000123345
0.000317682
0.000506917
0.000627542
0.000640701
0.000546548
0.000384286
0.000218302
0.00011489
0.000117028
0.000227691
0.000408626
0.000594819
0.000719171
0.000739046
0.0006531
0.000501638
0.000350572
0.000265508
0.00028503
0.000405272
0.000581769
0.00074777
0.000841414
0.000831589
0.000730468
0.000587989
0.000470722
0.000433877
0.000497832
0.000640035
0.000805201
0.000929233
0.000966952
0.000911421
0.000796199
0.000680081
0.000621204
0.000651441
0.000762934
0.000912454
0.00104119
0.00110112
0.00107622
0.000988781
0.000888384
0.000829051
0.000844766
0.000934649
0.00106448
0.00118317
0.0012465
0.00123714
0.00117168
0.00109182
0.00104452
0.00106014
0.00113908
0.00125275
0.00135791
0.0014172
0.00141624
0.00136929
0.00131133
0.00128081
0.00130161
0.00137255
0.00146923
0.00155663
0.00160611
0.00160858
0.0015777
0.00154224
0.00153164
0.00156209
0.00162958
0.00171302
0.00178521
0.00182612
0.00183185
0.00181551
0.00179976
0.00180551
0.00184205
0.00190352
0.00197282
0.00203057
0.00206455
0.00207495
0.00207333
0.00207613
0.00209647
0.0021381
0.00219438
0.00225227
0.00229916
0.00232874
0.00234353
0.00235278
0.00236748
0.0023949
0.0024355
0.0024834
0.00252978
0.00256743
0.00259395
0.00261239
0.0026291
0.00265033
0.00267919
0.00271444
0.00275164
0.00278552
0.00281263
0.00283269
0.00284834
0.0028635
0.00288133
0.00290282
0.00292664
0.00295
0.00297022
0.0029859
0.00299742
0.00300644
0.00301503
0.00302459
0.00303552
-7.62982e-05
-6.59387e-05
-4.15912e-05
-4.17672e-06
4.42547e-05
0.000100487
0.000160015
0.000217103
0.000265625
0.000298992
0.000311378
0.000297724
0.000255151
0.000183207
8.48952e-05
-3.31982e-05
-0.000160678
-0.000283475
-0.000385757
-0.000452174
-0.00047094
-0.000435605
-0.000347371
-0.000215031
-5.5058e-05
0.000110083
0.000254361
0.000352977
0.000387634
0.000350586
0.000246646
9.34101e-05
-8.13077e-05
-0.000243735
-0.000360193
-0.000404864
-0.000365966
-0.000248838
-7.52274e-05
0.000120088
0.000295612
0.000412222
0.000442847
0.00037945
0.000235985
4.67024e-05
-0.000140413
-0.000274702
-0.000317281
-0.000252702
-9.43412e-05
0.000117595
0.000325671
0.000471342
0.000513935
0.000443956
0.00028557
8.85439e-05
-8.65643e-05
-0.00018573
-0.000177057
-5.98005e-05
0.000134443
0.000349163
0.000518455
0.000588783
0.000538564
0.000387118
0.000189014
1.58005e-05
-6.91399e-05
-3.35049e-05
0.000112649
0.000320808
0.000520828
0.000645289
0.00065399
0.000548682
0.000372599
0.000195122
8.67199e-05
9.20458e-05
0.000212717
0.000406567
0.000603607
0.000732557
0.000749077
0.000653201
0.000489154
0.000327764
0.000238617
0.000261736
0.000391599
0.000579692
0.000754443
0.000850382
0.000835463
0.000723955
0.000570004
0.000444785
0.000406568
0.000475997
0.000627932
0.0008028
0.000932304
0.000968963
0.000906371
0.000781165
0.000656365
0.000593666
0.000626276
0.000744937
0.000902963
0.00103758
0.00109803
0.00106799
0.000971929
0.000863073
0.000798913
0.000815188
0.000910321
0.00104734
0.00117165
0.00123633
0.00122337
0.00115091
0.00106368
0.00101167
0.00102693
0.00110949
0.00122854
0.00133792
0.00139793
0.00139358
0.0013404
0.00127587
0.001241
0.00126108
0.00133458
0.00143526
0.00152567
0.00157529
0.00157455
0.00153817
0.00149695
0.00148232
0.0015115
0.00158015
0.0016657
0.0017391
0.00177895
0.00178117
0.00175976
0.00173895
0.00174107
0.00177603
0.00183753
0.00190727
0.00196452
0.00199614
0.00200234
0.00199542
0.00199301
0.00200918
0.00204802
0.0021025
0.00215873
0.00220317
0.00222905
0.00223897
0.00224275
0.00225214
0.00227494
0.00231171
0.00235619
0.00239901
0.00243241
0.0024538
0.00246641
0.00247704
0.00249241
0.00251592
0.00254635
0.002579
0.00260827
0.00263045
0.00264523
0.00265544
0.00266525
0.00267808
0.00269503
0.00271472
0.0027342
0.0027506
0.00276241
0.00277004
0.00277527
0.00278031
0.0027867
0.00279488
-8.5187e-05
-7.39912e-05
-4.79918e-05
-8.1946e-06
4.33001e-05
0.000103006
0.000166183
0.00022673
0.000278187
0.000313564
0.000326699
0.000312309
0.000267391
0.000191519
8.78302e-05
-3.67479e-05
-0.000171318
-0.000301035
-0.000409154
-0.00047936
-0.00049914
-0.000461616
-0.000367906
-0.000227195
-5.68587e-05
0.000119227
0.000272967
0.000377778
0.000414024
0.000373328
0.00026105
9.5727e-05
-9.24267e-05
-0.000266785
-0.000390921
-0.000437441
-0.000393976
-0.000266809
-7.99026e-05
0.000129034
0.000315508
0.000437792
0.000467399
0.000396463
0.000240592
3.69665e-05
-0.000163003
-0.000305226
-0.000348574
-0.00027719
-0.000106337
0.000120489
0.000341686
0.000494804
0.000536844
0.000458478
0.000286436
7.44782e-05
-0.000112396
-0.000216659
-0.000204978
-7.7708e-05
0.000130516
0.000358892
0.000537143
0.000608706
0.000551541
0.000387204
0.000174485
-1.01203e-05
-9.92863e-05
-5.93537e-05
9.80058e-05
0.000320306
0.000532342
0.000662324
0.000668073
0.000552436
0.000362335
0.000172208
5.7119e-05
6.40442e-05
0.000193794
0.000400644
0.000609583
0.000744717
0.00075935
0.000654307
0.000477402
0.000304472
0.000209572
0.000234806
0.000373564
0.000573572
0.000758294
0.000858109
0.00083936
0.00071787
0.000551809
0.000417224
0.00037605
0.00044985
0.000611337
0.000796697
0.000933051
0.000969986
0.000901012
0.000765517