/*--------------------------------*- C++ -*----------------------------------*\
| =========                 |                                                 |
| \\      /  F ield         | OpenFOAM: The Open Source CFD Toolbox           |
|  \\    /   O peration     | Version:  v1912                                 |
|   \\  /    A nd           | Website:  www.openfoam.com                      |
|    \\/     M anipulation  |                                                 |
\*---------------------------------------------------------------------------*/
FoamFile
{
    version     2.0;
    format      ascii;
    class       surfaceScalarField;
    location    "0.2";
    object      phi;
}
// * * * * * * * * * * * * * * * * * * * * * * * * * * * * * * * * * * * * * //

dimensions      [0 3 -1 0 0 0 0];
oriented        oriented;


internalField   nonuniform List<scalar> 
23660
(
3.87646e-06
8.23773e-10
3.87655e-06
-9.83511e-10
3.87658e-06
7.96859e-10
3.87656e-06
-9.18231e-10
3.87653e-06
8.42055e-10
3.87645e-06
-8.26026e-10
3.87639e-06
8.75788e-10
3.87632e-06
-8.03336e-10
3.87628e-06
8.55569e-10
3.87626e-06
-8.08234e-10
3.87627e-06
8.0736e-10
3.8763e-06
-8.34163e-10
3.87635e-06
7.45303e-10
3.87641e-06
-8.65782e-10
3.87648e-06
6.78356e-10
3.87655e-06
-8.97501e-10
3.8766e-06
6.44883e-10
3.87666e-06
-8.79414e-10
3.87668e-06
6.52406e-10
3.87669e-06
-8.14036e-10
3.87666e-06
6.93059e-10
3.87663e-06
-7.3012e-10
3.87657e-06
7.39437e-10
3.87652e-06
-6.51526e-10
3.87646e-06
7.76331e-10
3.87642e-06
-6.16509e-10
3.87637e-06
7.5832e-10
3.87636e-06
-6.25567e-10
3.87634e-06
7.04088e-10
3.87636e-06
-6.56437e-10
3.87636e-06
6.37466e-10
3.87639e-06
-7.01445e-10
3.87639e-06
5.92575e-10
3.87641e-06
-6.90945e-10
3.87639e-06
6.03863e-10
3.87638e-06
-6.36623e-10
3.87632e-06
6.42357e-10
3.87629e-06
-5.66823e-10
3.87622e-06
6.91009e-10
3.8762e-06
-5.26388e-10
3.87614e-06
6.85193e-10
3.87613e-06
-5.30998e-10
3.87609e-06
6.42464e-10
3.8761e-06
-5.59462e-10
3.87608e-06
5.78587e-10
3.8761e-06
-5.87795e-10
3.87606e-06
5.6081e-10
3.87606e-06
-5.57559e-10
3.87601e-06
5.84928e-10
3.87599e-06
-5.00119e-10
3.87592e-06
6.31962e-10
3.8759e-06
-4.51425e-10
3.87583e-06
6.34493e-10
3.87582e-06
-4.50313e-10
3.87577e-06
5.98364e-10
3.87578e-06
-4.77283e-10
3.87573e-06
5.42377e-10
3.87574e-06
-4.95413e-10
3.87569e-06
5.32124e-10
3.87569e-06
-4.66262e-10
3.87561e-06
5.6042e-10
3.87559e-06
-4.12317e-10
3.87551e-06
5.96265e-10
3.87549e-06
-3.85141e-10
3.87542e-06
5.88214e-10
3.87541e-06
-3.92416e-10
3.87534e-06
5.45978e-10
3.87535e-06
-4.21239e-10
3.87529e-06
5.12951e-10
3.87529e-06
-4.14911e-10
3.87522e-06
5.22762e-10
3.8752e-06
-3.75954e-10
3.87512e-06
5.59582e-10
3.87511e-06
-3.39643e-10
3.87503e-06
5.64572e-10
3.87501e-06
-3.36893e-10
3.87493e-06
5.34726e-10
3.87492e-06
-3.56233e-10
3.87485e-06
5.01699e-10
3.87484e-06
-3.56196e-10
3.87476e-06
5.06669e-10
3.87474e-06
-3.24731e-10
3.87465e-06
5.35745e-10
3.87463e-06
-2.93489e-10
3.87454e-06
5.42152e-10
3.87452e-06
-2.8859e-10
3.87443e-06
5.16732e-10
3.87441e-06
-3.03913e-10
3.87433e-06
4.89341e-10
3.87432e-06
-3.03177e-10
3.87423e-06
4.96312e-10
3.87421e-06
-2.75436e-10
3.87411e-06
5.20178e-10
3.87408e-06
-2.51852e-10
3.87398e-06
5.23258e-10
3.87396e-06
-2.49224e-10
3.87386e-06
5.02555e-10
3.87384e-06
-2.59182e-10
3.87374e-06
4.85241e-10
3.87372e-06
-2.54149e-10
3.87362e-06
4.96704e-10
3.87359e-06
-2.29493e-10
3.87348e-06
5.14141e-10
3.87345e-06
-2.13342e-10
3.87334e-06
5.13415e-10
3.8733e-06
-2.12609e-10
3.87319e-06
4.96783e-10
3.87317e-06
-2.17672e-10
3.87306e-06
4.89777e-10
3.87303e-06
-2.06916e-10
3.87291e-06
5.02766e-10
3.87288e-06
-1.87475e-10
3.87276e-06
5.13387e-10
3.87272e-06
-1.77794e-10
3.8726e-06
5.08913e-10
3.87256e-06
-1.77138e-10
3.87244e-06
4.98544e-10
3.8724e-06
-1.74556e-10
3.87227e-06
5.01255e-10
3.87224e-06
-1.60476e-10
3.8721e-06
5.13677e-10
3.87206e-06
-1.4631e-10
3.87192e-06
5.18914e-10
3.87188e-06
-1.40004e-10
3.87174e-06
5.13795e-10
3.87169e-06
-1.36819e-10
3.87155e-06
5.11166e-10
3.87151e-06
-1.28373e-10
3.87136e-06
5.20069e-10
3.87131e-06
-1.14645e-10
3.87116e-06
5.30406e-10
3.87111e-06
-1.04745e-10
3.87095e-06
5.32497e-10
3.8709e-06
-9.91837e-11
3.87074e-06
5.30382e-10
3.87068e-06
-9.26678e-11
3.87053e-06
5.34916e-10
3.87047e-06
-8.17414e-11
3.8703e-06
5.45805e-10
3.87024e-06
-7.06437e-11
3.87006e-06
5.53814e-10
3.87e-06
-6.26661e-11
3.86982e-06
5.56682e-10
3.86975e-06
-5.52228e-11
3.86957e-06
5.6106e-10
3.8695e-06
-4.5373e-11
3.86931e-06
5.71684e-10
3.86924e-06
-3.41167e-11
3.86904e-06
5.8406e-10
3.86897e-06
-2.41971e-11
3.86876e-06
5.93523e-10
3.86868e-06
-1.49664e-11
3.86847e-06
6.02006e-10
3.86839e-06
-4.8737e-12
3.86817e-06
6.13172e-10
3.86809e-06
8.97297e-12
3.86786e-06
6.26895e-10
3.86777e-06
2.47254e-11
3.86753e-06
6.40501e-10
3.86743e-06
3.99546e-11
3.86719e-06
6.53097e-10
3.86709e-06
5.5826e-11
3.86684e-06
6.67696e-10
3.86673e-06
7.33796e-11
3.86646e-06
6.85946e-10
3.86635e-06
9.24751e-11
3.86607e-06
7.05955e-10
3.86595e-06
1.12282e-10
3.86567e-06
7.25761e-10
3.86554e-06
1.32726e-10
3.86524e-06
7.46239e-10
3.8651e-06
1.54535e-10
3.86479e-06
7.69295e-10
3.86463e-06
1.78513e-10
3.8643e-06
7.95026e-10
3.86414e-06
2.04364e-10
3.86379e-06
8.22836e-10
3.8636e-06
2.32334e-10
3.86324e-06
8.53481e-10
3.86304e-06
2.6347e-10
3.86265e-06
8.88447e-10
3.86243e-06
2.98883e-10
3.86202e-06
9.28563e-10
3.86177e-06
3.39268e-10
3.86133e-06
9.74174e-10
3.86105e-06
3.85563e-10
3.86058e-06
1.02673e-09
3.86027e-06
4.40115e-10
3.85975e-06
1.0899e-09
3.8594e-06
5.07724e-10
3.85882e-06
1.17152e-09
3.85841e-06
6.00256e-10
3.85774e-06
1.29442e-09
3.85721e-06
7.49633e-10
3.85636e-06
1.50951e-09
3.85562e-06
1.01644e-09
3.85445e-06
1.89203e-09
3.85333e-06
1.49258e-09
3.85164e-06
2.54651e-09
1.94951e-09
3.85036e-06
4.18596e-06
7.27122e-10
4.18576e-06
-7.85214e-10
4.18573e-06
8.28906e-10
4.18549e-06
-6.80855e-10
4.18547e-06
8.592e-10
4.18531e-06
-6.60595e-10
4.18536e-06
8.20254e-10
4.18526e-06
-6.9778e-10
4.18538e-06
7.26794e-10
4.18537e-06
-7.89609e-10
4.18557e-06
6.01883e-10
4.18563e-06
-8.92332e-10
4.18588e-06
4.93143e-10
4.18598e-06
-9.59286e-10
4.18622e-06
4.34635e-10
4.18627e-06
-9.51268e-10
4.18646e-06
4.5711e-10
4.18642e-06
-8.42801e-10
4.18651e-06
5.66998e-10
4.18637e-06
-6.72648e-10
4.18635e-06
7.11833e-10
4.18614e-06
-5.17453e-10
4.18606e-06
8.12097e-10
4.18585e-06
-4.361e-10
4.18581e-06
8.12283e-10
4.18566e-06
-4.60276e-10
4.18571e-06
7.06536e-10
4.18565e-06
-5.67582e-10
4.18579e-06
5.64366e-10
4.18581e-06
-6.75303e-10
4.18598e-06
4.71197e-10
4.18598e-06
-7.03546e-10
4.18609e-06
4.74949e-10
4.18602e-06
-6.18485e-10
4.18605e-06
5.77419e-10
4.18589e-06
-4.81899e-10
4.18585e-06
6.90018e-10
4.18566e-06
-3.84782e-10
4.18563e-06
7.2407e-10
4.18549e-06
-3.87813e-10
4.18553e-06
6.48031e-10
4.18547e-06
-4.74023e-10
4.18558e-06
5.35583e-10
4.18557e-06
-5.52674e-10
4.18568e-06
4.739e-10
4.18564e-06
-5.46246e-10
4.18568e-06
5.12247e-10
4.18557e-06
-4.44261e-10
4.18554e-06
6.1177e-10
4.18539e-06
-3.41806e-10
4.18535e-06
6.66345e-10
4.18522e-06
-3.17613e-10
4.18524e-06
6.16372e-10
4.18517e-06
-3.79885e-10
4.18524e-06
5.23752e-10
4.18521e-06
-4.43441e-10
4.18528e-06
4.7376e-10
4.18521e-06
-4.3243e-10
4.18523e-06
5.14192e-10
4.18511e-06
-3.46762e-10
4.18508e-06
5.95803e-10
4.18494e-06
-2.73351e-10
4.18491e-06
6.17635e-10
4.18481e-06
-2.77675e-10
4.18484e-06
5.604e-10
4.18478e-06
-3.34673e-10
4.18483e-06
4.94204e-10
4.18477e-06
-3.65558e-10
4.1848e-06
4.88006e-10
4.1847e-06
-3.19592e-10
4.18468e-06
5.49561e-10
4.18455e-06
-2.46362e-10
4.18451e-06
5.93026e-10
4.1844e-06
-2.22572e-10
4.1844e-06
5.63802e-10
4.18432e-06
-2.58666e-10
4.18435e-06
5.0619e-10
4.18428e-06
-2.91315e-10
4.1843e-06
4.87616e-10
4.18421e-06
-2.65368e-10
4.18418e-06
5.31395e-10
4.18406e-06
-2.03224e-10
4.18402e-06
5.70921e-10
4.18391e-06
-1.75854e-10
4.1839e-06
5.53077e-10
4.18381e-06
-1.98326e-10
4.18381e-06
5.07962e-10
4.18374e-06
-2.25269e-10
4.18373e-06
4.93597e-10
4.18363e-06
-2.03972e-10
4.1836e-06
5.30621e-10
4.18347e-06
-1.52549e-10
4.18344e-06
5.59569e-10
4.18332e-06
-1.34961e-10
4.1833e-06
5.42989e-10
4.1832e-06
-1.54783e-10
4.1832e-06
5.10263e-10
4.18311e-06
-1.69448e-10
4.18308e-06
5.07585e-10
4.18298e-06
-1.44588e-10
4.18293e-06
5.4088e-10
4.18281e-06
-1.05026e-10
4.18276e-06
5.5857e-10
4.18265e-06
-9.71683e-11
4.18262e-06
5.42909e-10
4.18252e-06
-1.12378e-10
4.18249e-06
5.23675e-10
4.18238e-06
-1.13342e-10
4.18234e-06
5.33246e-10
4.18222e-06
-8.49095e-11
4.18216e-06
5.60063e-10
4.18203e-06
-5.90669e-11
4.18198e-06
5.65401e-10
4.18186e-06
-5.91788e-11
4.18182e-06
5.50466e-10
4.18171e-06
-6.659e-11
4.18167e-06
5.4414e-10
4.18155e-06
-5.47057e-11
4.18149e-06
5.61247e-10
4.18135e-06
-2.73461e-11
4.18129e-06
5.79939e-10
4.18115e-06
-1.17918e-11
4.18109e-06
5.79231e-10
4.18096e-06
-1.23849e-11
4.18091e-06
5.71144e-10
4.18078e-06
-8.13255e-12
4.18071e-06
5.77296e-10
4.18057e-06
1.09773e-11
4.1805e-06
5.95585e-10
4.18035e-06
3.30178e-11
4.18027e-06
6.05758e-10
4.18013e-06
4.1179e-11
4.18006e-06
6.04366e-10
4.17991e-06
4.43416e-11
4.17984e-06
6.06455e-10
4.17969e-06
5.70081e-11
4.1796e-06
6.20595e-10
4.17944e-06
7.78451e-11
4.17935e-06
6.36402e-10
4.17919e-06
9.33494e-11
4.1791e-06
6.43571e-10
4.17893e-06
1.0123e-10
4.17884e-06
6.4812e-10
4.17867e-06
1.12161e-10
4.17858e-06
6.6012e-10
4.1784e-06
1.30972e-10
4.17829e-06
6.77728e-10
4.17811e-06
1.50298e-10
4.178e-06
6.91981e-10
4.17781e-06
1.6418e-10
4.1777e-06
7.02368e-10
4.17751e-06
1.77399e-10
4.1774e-06
7.16066e-10
4.1772e-06
1.96121e-10
4.17707e-06
7.35881e-10
4.17686e-06
2.19166e-10
4.17673e-06
7.57106e-10
4.17652e-06
2.40091e-10
4.17638e-06
7.76543e-10
4.17616e-06
2.59654e-10
4.17602e-06
7.9711e-10
4.17579e-06
2.82461e-10
4.17564e-06
8.22222e-10
4.1754e-06
3.09419e-10
4.17524e-06
8.5042e-10
4.17499e-06
3.37522e-10
4.17482e-06
8.78797e-10
4.17456e-06
3.65506e-10
4.17438e-06
9.08302e-10
4.17412e-06
3.96145e-10
4.17392e-06
9.41997e-10
4.17365e-06
4.31195e-10
4.17344e-06
9.80248e-10
4.17314e-06
4.6981e-10
4.17292e-06
1.02155e-09
4.17261e-06
5.10897e-10
4.17237e-06
1.066e-09
4.17204e-06
5.55938e-10
4.17178e-06
1.11607e-09
4.17144e-06
6.07534e-10
4.17115e-06
1.17387e-09
4.17078e-06
6.67054e-10
4.17047e-06
1.2403e-09
4.17008e-06
7.3545e-10
4.16973e-06
1.31682e-09
4.1693e-06
8.15089e-10
4.16892e-06
1.40746e-09
4.16845e-06
9.14717e-10
4.16801e-06
1.52782e-09
4.16747e-06
1.05099e-09
4.16694e-06
1.69646e-09
4.1663e-06
1.2404e-09
4.16567e-06
1.93e-09
4.16491e-06
1.50327e-09
4.16417e-06
2.24788e-09
4.16333e-06
1.86213e-09
4.16255e-06
2.66661e-09
4.16172e-06
2.32841e-09
4.1611e-06
3.16718e-09
2.8086e-09
4.16024e-06
4.5202e-06
5.94134e-10
4.51989e-06
-4.75846e-10
4.52002e-06
6.99006e-10
4.5197e-06
-3.69576e-10
4.51982e-06
7.43939e-10
4.51953e-06
-3.73606e-10
4.51971e-06
6.46357e-10
4.51949e-06
-4.81006e-10
4.51973e-06
4.86207e-10
4.51959e-06
-6.51177e-10
4.5199e-06
2.94589e-10
4.51983e-06
-8.21622e-10
4.52019e-06
1.34584e-10
4.52013e-06
-9.03041e-10
4.52049e-06
7.83692e-11
4.5204e-06
-8.64436e-10
4.5207e-06
1.57699e-10
4.52054e-06
-6.85728e-10
4.52075e-06
3.639e-10
4.5205e-06
-4.25406e-10
4.5206e-06
6.06035e-10
4.52029e-06
-2.01513e-10
4.52035e-06
7.46826e-10
4.52003e-06
-1.13529e-10
4.52013e-06
7.16515e-10
4.51986e-06
-1.91651e-10
4.52002e-06
5.41265e-10
4.51984e-06
-3.88239e-10
4.52008e-06
3.24424e-10
4.51997e-06
-5.61012e-10
4.52024e-06
2.04621e-10
4.52011e-06
-5.75577e-10
4.52033e-06
2.52765e-10
4.52014e-06
-4.30393e-10
4.52028e-06
4.35471e-10
4.52003e-06
-2.25795e-10
4.52011e-06
6.11901e-10
4.51982e-06
-9.83443e-11
4.51991e-06
6.32244e-10
4.51966e-06
-1.38311e-10
4.51981e-06
5.00966e-10
4.51963e-06
-2.93859e-10
4.51983e-06
3.3063e-10
4.5197e-06
-4.16502e-10
4.5199e-06
2.6747e-10
4.51974e-06
-3.81603e-10
4.5199e-06
3.56583e-10
4.51968e-06
-2.27865e-10
4.51977e-06
5.20039e-10
4.51951e-06
-8.23861e-11
4.5196e-06
5.81985e-10
4.51935e-06
-7.58065e-11
4.51948e-06
4.92678e-10
4.51929e-06
-1.90201e-10
4.51946e-06
3.5254e-10
4.51931e-06
-2.90679e-10
4.51947e-06
3.05383e-10
4.5193e-06
-2.55896e-10
4.51942e-06
3.92337e-10
4.5192e-06
-1.26056e-10
4.51928e-06
5.18209e-10
4.51903e-06
-3.08702e-11
4.51912e-06
5.301e-10
4.5189e-06
-5.947e-11
4.51903e-06
4.35667e-10
4.51885e-06
-1.59655e-10
4.519e-06
3.46748e-10
4.51883e-06
-1.973e-10
4.51895e-06
3.66821e-10
4.51876e-06
-1.20731e-10
4.51883e-06
4.70015e-10
4.51861e-06
-1.87576e-11
4.51868e-06
5.19564e-10
4.51846e-06
7.96241e-13
4.51856e-06
4.64239e-10
4.51837e-06
-6.76473e-11
4.51849e-06
3.84505e-10
4.51831e-06
-1.16435e-10
4.51842e-06
3.80979e-10
4.51822e-06
-7.04944e-11
4.5183e-06
4.55329e-10
4.51808e-06
1.71944e-11
4.51815e-06
5.04073e-10
4.51792e-06
4.60144e-11
4.51801e-06
4.68725e-10
4.51781e-06
1.01233e-12
4.51791e-06
4.09307e-10
4.51772e-06
-4.11014e-11
4.51781e-06
4.09197e-10
4.51761e-06
-4.95789e-12
4.51767e-06
4.68154e-10
4.51745e-06
6.81445e-11
4.51751e-06
5.02156e-10
4.51729e-06
8.29465e-11
4.51736e-06
4.72706e-10
4.51716e-06
4.42239e-11
4.51724e-06
4.31303e-10
4.51705e-06
2.20806e-11
4.51712e-06
4.42237e-10
4.51691e-06
6.30009e-11
4.51696e-06
4.92599e-10
4.51673e-06
1.16535e-10
4.51678e-06
5.13244e-10
4.51656e-06
1.18497e-10
4.51662e-06
4.88173e-10
4.51642e-06
8.90803e-11
4.51647e-06
4.66864e-10
4.51627e-06
9.03971e-11
4.51631e-06
4.88817e-10
4.5161e-06
1.3345e-10
4.51613e-06
5.27641e-10
4.5159e-06
1.65291e-10
4.51594e-06
5.32641e-10
4.51572e-06
1.5756e-10
4.51576e-06
5.10997e-10
4.51555e-06
1.4319e-10
4.51559e-06
5.07339e-10
4.51537e-06
1.62716e-10
4.51539e-06
5.36024e-10
4.51517e-06
2.00913e-10
4.51518e-06
5.62104e-10
4.51495e-06
2.17876e-10
4.51497e-06
5.59964e-10
4.51475e-06
2.11491e-10
4.51477e-06
5.50549e-10
4.51455e-06
2.16185e-10
4.51456e-06
5.63563e-10
4.51433e-06
2.44681e-10
4.51433e-06
5.91307e-10
4.51409e-06
2.72737e-10
4.51409e-06
6.04633e-10
4.51385e-06
2.79942e-10
4.51386e-06
6.02002e-10
4.51362e-06
2.81616e-10
4.51362e-06
6.07271e-10
4.51337e-06
3.00203e-10
4.51336e-06
6.30104e-10
4.51311e-06
3.29424e-10
4.5131e-06
6.52653e-10
4.51284e-06
3.48728e-10
4.51282e-06
6.61799e-10
4.51257e-06
3.56953e-10
4.51255e-06
6.68654e-10
4.51229e-06
3.71466e-10
4.51226e-06
6.87591e-10
4.51199e-06
3.98004e-10
4.51196e-06
7.13521e-10
4.51168e-06
4.23894e-10
4.51164e-06
7.32813e-10
4.51137e-06
4.41e-10
4.51132e-06
7.46596e-10
4.51104e-06
4.5803e-10
4.51099e-06
7.66439e-10
4.5107e-06
4.84369e-10
4.51064e-06
7.95208e-10
4.51035e-06
5.15665e-10
4.51028e-06
8.24355e-10
4.50998e-06
5.43362e-10
4.5099e-06
8.49598e-10
4.50959e-06
5.69286e-10
4.50951e-06
8.76772e-10
4.5092e-06
6.00734e-10
4.50911e-06
9.10831e-10
4.50878e-06
6.38139e-10
4.50868e-06
9.4863e-10
4.50834e-06
6.76426e-10
4.50823e-06
9.85951e-10
4.50789e-06
7.14558e-10
4.50777e-06
1.0251e-09
4.50741e-06
7.57088e-10
4.50728e-06
1.0707e-09
4.5069e-06
8.06551e-10
4.50676e-06
1.12279e-09
4.50637e-06
8.61019e-10
4.50621e-06
1.17883e-09
4.5058e-06
9.18981e-10
4.50563e-06
1.2393e-09
4.5052e-06
9.82993e-10
4.50501e-06
1.30799e-09
4.50456e-06
1.05686e-09
4.50435e-06
1.3878e-09
4.50387e-06
1.1424e-09
4.50363e-06
1.48013e-09
4.50313e-06
1.24176e-09
4.50285e-06
1.58925e-09
4.50231e-06
1.36187e-09
4.50199e-06
1.72509e-09
4.50139e-06
1.51407e-09
4.50102e-06
1.89918e-09
4.50036e-06
1.70846e-09
4.49994e-06
2.11987e-09
4.49923e-06
1.95304e-09
4.49876e-06
2.39449e-09
4.49801e-06
2.25618e-09
4.49753e-06
2.73054e-09
4.49676e-06
2.62396e-09
4.4963e-06
3.12764e-09
4.49559e-06
3.04051e-09
4.49529e-06
3.47022e-09
3.52172e-09
4.49457e-06
4.8811e-06
4.46174e-10
4.88078e-06
-1.62365e-10
4.88092e-06
5.58269e-10
4.88064e-06
-8.44309e-11
4.8808e-06
5.79422e-10
4.88054e-06
-1.06926e-10
4.8807e-06
4.79582e-10
4.88048e-06
-2.59437e-10
4.8807e-06
2.69712e-10
4.88055e-06
-5.05342e-10
4.88083e-06
1.65033e-11
4.88075e-06
-7.39608e-10
4.88108e-06
-1.94555e-10
4.88101e-06
-8.40907e-10
4.88134e-06
-2.51142e-10
4.88126e-06
-7.80529e-10
4.88154e-06
-1.20716e-10
4.88139e-06
-5.40778e-10
4.88158e-06
1.77172e-10
4.88136e-06
-2.03678e-10
4.88146e-06
5.01076e-10
4.88118e-06
8.53216e-11
4.88125e-06
6.76662e-10
4.88095e-06
1.80511e-10
4.88104e-06
6.30334e-10
4.88079e-06
5.47604e-11
4.88094e-06
3.98183e-10
4.88077e-06
-2.26234e-10
4.88098e-06
1.20444e-10
4.88086e-06
-4.44494e-10
4.88109e-06
-2.50894e-11
4.88097e-06
-4.57222e-10
4.88117e-06
5.86596e-11
4.881e-06
-2.65694e-10
4.88112e-06
3.20322e-10
4.88089e-06
-2.78531e-12
4.88096e-06
5.41183e-10
4.88072e-06
1.50997e-10
4.88079e-06
5.58986e-10
4.88057e-06
8.42288e-11
4.88068e-06
3.87796e-10
4.88052e-06
-1.34762e-10
4.88068e-06
1.70008e-10
4.88056e-06
-2.90724e-10
4.88072e-06
9.81222e-11
4.88059e-06
-2.43631e-10
4.88071e-06
2.37774e-10
4.88052e-06
-4.41881e-11
4.88059e-06
4.50854e-10
4.88037e-06
1.40511e-10
4.88043e-06
5.21205e-10
4.88022e-06
1.32741e-10
4.88031e-06
4.05526e-10
4.88015e-06
-2.90012e-11
4.88027e-06
2.26917e-10
4.88014e-06
-1.59324e-10
4.88026e-06
1.80974e-10
4.88012e-06
-1.12592e-10
4.8802e-06
3.09465e-10
4.88001e-06
6.35577e-11
4.88007e-06
4.64052e-10
4.87986e-06
1.73424e-10
4.87992e-06
4.79229e-10
4.87973e-06
1.23408e-10
4.87981e-06
3.56727e-10
4.87966e-06
-1.20329e-11
4.87976e-06
2.50061e-10
4.87962e-06
-5.9212e-11
4.8797e-06
2.87538e-10
4.87953e-06
4.62357e-11
4.87959e-06
4.19346e-10
4.87939e-06
1.74424e-10
4.87943e-06
4.80488e-10
4.87925e-06
1.83263e-10
4.8793e-06
4.14066e-10
4.87914e-06
8.72396e-11
4.87921e-06
3.16155e-10
4.87907e-06
2.64194e-11
4.87913e-06
3.18406e-10
4.87897e-06
9.22496e-11
4.87901e-06
4.15557e-10
4.87883e-06
2.00798e-10
4.87885e-06
4.7988e-10
4.87867e-06
2.24602e-10
4.8787e-06
4.41286e-10
4.87854e-06
1.56313e-10
4.87859e-06
3.67e-10
4.87843e-06
1.09867e-10
4.87848e-06
3.67471e-10
4.87831e-06
1.62272e-10
4.87833e-06
4.4532e-10
4.87815e-06
2.4685e-10
4.87816e-06
4.92738e-10
4.87799e-06
2.57896e-10
4.878e-06
4.58209e-10
4.87784e-06
2.02591e-10
4.87787e-06
4.07286e-10
4.87771e-06
1.79615e-10
4.87773e-06
4.23025e-10
4.87756e-06
2.34038e-10
4.87756e-06
4.89304e-10
4.87738e-06
2.96216e-10
4.87738e-06
5.18704e-10
4.8772e-06
2.94424e-10
4.8772e-06
4.87323e-10
4.87703e-06
2.55823e-10
4.87704e-06
4.61757e-10
4.87687e-06
2.58912e-10
4.87687e-06
4.92419e-10
4.87669e-06
3.13025e-10
4.87667e-06
5.42604e-10
4.87649e-06
3.50081e-10
4.87647e-06
5.5066e-10
4.87629e-06
3.37117e-10
4.87628e-06
5.24326e-10
4.8761e-06
3.18758e-10
4.87609e-06
5.22408e-10
4.87591e-06
3.4368e-10
4.87588e-06
5.61465e-10
4.87569e-06
3.90864e-10
4.87566e-06
5.95468e-10
4.87547e-06
4.09866e-10
4.87543e-06
5.92986e-10
4.87524e-06
3.99831e-10
4.87521e-06
5.82532e-10
4.87502e-06
4.05016e-10
4.87498e-06
6.01803e-10
4.87479e-06
4.41434e-10
4.87474e-06
6.38963e-10
4.87454e-06
4.75435e-10
4.87449e-06
6.57176e-10
4.87428e-06
4.82865e-10
4.87423e-06
6.54444e-10
4.87403e-06
4.83961e-10
4.87397e-06
6.62568e-10
4.87377e-06
5.07267e-10
4.8737e-06
6.93765e-10
4.87349e-06
5.44005e-10
4.87342e-06
7.24118e-10
4.8732e-06
5.67358e-10
4.87312e-06
7.36709e-10
4.8729e-06
5.76818e-10
4.87282e-06
7.46377e-10
4.8726e-06
5.94722e-10
4.87252e-06
7.71842e-10
4.87229e-06
6.28223e-10
4.87219e-06
8.0618e-10
4.87196e-06
6.60587e-10
4.87186e-06
8.31908e-10
4.87162e-06
6.81805e-10
4.87151e-06
8.50346e-10
4.87127e-06
7.03044e-10
4.87116e-06
8.76646e-10
4.87091e-06
7.36324e-10
4.87079e-06
9.14298e-10
4.87053e-06
7.75818e-10
4.8704e-06
9.51982e-10
4.87013e-06
8.10595e-10
4.87e-06
9.84213e-10
4.86972e-06
8.42755e-10
4.86958e-06
1.01889e-09
4.8693e-06
8.81874e-10
4.86915e-06
1.06262e-09
4.86886e-06
9.28968e-10
4.8687e-06
1.11116e-09
4.8684e-06
9.77342e-10
4.86822e-06
1.15906e-09
4.86791e-06
1.02545e-09
4.86773e-06
1.2092e-09
4.8674e-06
1.07903e-09
4.86721e-06
1.26745e-09
4.86687e-06
1.14172e-09
4.86666e-06
1.33406e-09
4.86631e-06
1.21106e-09
4.86608e-06
1.40579e-09
4.86572e-06
1.28509e-09
4.86547e-06
1.48329e-09
4.86509e-06
1.36712e-09
4.86483e-06
1.57145e-09
4.86442e-06
1.46217e-09
4.86414e-06
1.67434e-09
4.8637e-06
1.57307e-09
4.86339e-06
1.79432e-09
4.86293e-06
1.70264e-09
4.86258e-06
1.93563e-09
4.86209e-06
1.85664e-09
4.86171e-06
2.105e-09
4.86118e-06
2.04193e-09
4.86077e-06
2.3084e-09
4.86022e-06
2.26348e-09
4.85979e-06
2.54961e-09
4.85922e-06
2.52453e-09
4.85878e-06
2.83137e-09
4.85821e-06
2.82748e-09
4.85778e-06
3.15469e-09
4.85724e-06
3.17012e-09
4.85686e-06
3.50802e-09
4.8564e-06
3.49743e-09
4.85602e-06
3.84918e-09
4.01547e-09
4.85553e-06
5.27078e-06
3.15365e-10
5.27056e-06
5.32111e-11
5.27064e-06
4.75359e-10
5.27043e-06
1.26649e-10
5.27054e-06
4.74657e-10
5.27036e-06
7.58227e-11
5.27047e-06
3.63662e-10
5.27031e-06
-9.89162e-11
5.27045e-06
1.2607e-10
5.27034e-06
-3.87828e-10
5.27054e-06
-1.86128e-10
5.27048e-06
-6.83753e-10
5.27073e-06
-4.35959e-10
5.27071e-06
-8.22993e-10
5.27095e-06
-4.95224e-10
5.27093e-06
-7.54936e-10
5.27113e-06
-3.2159e-10
5.27105e-06
-4.60256e-10
5.27118e-06
4.16445e-11
5.27103e-06
-5.00986e-11
5.27109e-06
4.3889e-10
5.27088e-06
2.9203e-10
5.2709e-06
6.55953e-10
5.27069e-06
3.94617e-10
5.27072e-06
6.05726e-10
5.27054e-06
2.25438e-10
5.27062e-06
3.23432e-10
5.2705e-06
-1.09135e-10
5.27063e-06
-1.17666e-11
5.27056e-06
-3.71776e-10
5.27071e-06
-1.73851e-10
5.27064e-06
-3.90555e-10
5.27077e-06
-6.60181e-11
5.27066e-06
-1.5872e-10
5.27073e-06
2.51996e-10
5.27057e-06
1.61595e-10
5.27059e-06
5.12918e-10
5.27041e-06
3.31567e-10
5.27043e-06
5.45009e-10
5.27027e-06
2.38693e-10
5.27032e-06
3.38678e-10
5.27021e-06
-2.07586e-11
5.2703e-06
7.82984e-11
5.27022e-06
-2.0676e-10
5.27032e-06
-6.10268e-12
5.27023e-06
-1.51508e-10
5.27029e-06
1.7233e-10
5.27015e-06
9.64804e-11
5.27018e-06
4.20712e-10
5.27002e-06
2.99917e-10
5.27003e-06
5.13418e-10
5.26988e-06
2.80199e-10
5.26991e-06
3.77254e-10
5.2698e-06
8.41691e-11
5.26986e-06
1.68845e-10
5.26977e-06
-6.90242e-11
5.26983e-06
1.17871e-10
5.26973e-06
-1.16269e-11
5.26976e-06
2.77768e-10
5.26962e-06
1.99765e-10
5.26963e-06
4.54849e-10
5.26948e-06
3.23264e-10
5.26948e-06
4.80036e-10
5.26935e-06
2.55267e-10
5.26937e-06
3.39434e-10
5.26926e-06
9.4653e-11
5.2693e-06
2.13695e-10
5.2692e-06
4.22723e-11
5.26923e-06
2.57728e-10
5.2691e-06
1.72212e-10
5.26911e-06
4.12033e-10
5.26897e-06
3.16091e-10
5.26895e-06
4.91304e-10
5.26882e-06
3.19528e-10
5.26882e-06
4.15688e-10
5.2687e-06
2.03531e-10
5.26871e-06
3.01921e-10
5.26861e-06
1.35468e-10
5.26862e-06
3.04743e-10
5.2685e-06
2.15954e-10
5.26849e-06
4.21957e-10
5.26835e-06
3.39737e-10
5.26833e-06
5.02958e-10
5.26819e-06
3.63629e-10
5.26817e-06
4.59606e-10
5.26805e-06
2.80647e-10
5.26804e-06
3.73096e-10
5.26792e-06
2.27753e-10
5.26791e-06
3.74461e-10
5.26779e-06
2.906e-10
5.26776e-06
4.6689e-10
5.26763e-06
3.85803e-10
5.26759e-06
5.27407e-10
5.26745e-06
3.97356e-10
5.26742e-06
4.88801e-10
5.26729e-06
3.32342e-10
5.26727e-06
4.29228e-10
5.26714e-06
3.06111e-10
5.26712e-06
4.4921e-10
5.26698e-06
3.69974e-10
5.26694e-06
5.28777e-10
5.2668e-06
4.41633e-10
5.26675e-06
5.67167e-10
5.2666e-06
4.39248e-10
5.26656e-06
5.32087e-10
5.26642e-06
3.94717e-10
5.26638e-06
5.01826e-10
5.26624e-06
3.97839e-10
5.26619e-06
5.39016e-10
5.26605e-06
4.59646e-10
5.26599e-06
5.99921e-10
5.26584e-06
5.03365e-10
5.26577e-06
6.11908e-10
5.26562e-06
4.88411e-10
5.26556e-06
5.82728e-10
5.26542e-06
4.66968e-10
5.26536e-06
5.8181e-10
5.2652e-06
4.96186e-10
5.26514e-06
6.29505e-10
5.26498e-06
5.51245e-10
5.2649e-06
6.71476e-10
5.26474e-06
5.7357e-10
5.26466e-06
6.69944e-10
5.2645e-06
5.61785e-10
5.26442e-06
6.5875e-10
5.26426e-06
5.67649e-10
5.26418e-06
6.8335e-10
5.26401e-06
6.10668e-10
5.26392e-06
7.29244e-10
5.26374e-06
6.51164e-10
5.26365e-06
7.52719e-10
5.26347e-06
6.60338e-10
5.26337e-06
7.51228e-10
5.26319e-06
6.61923e-10
5.26309e-06
7.62377e-10
5.26291e-06
6.89688e-10
5.26281e-06
8.00766e-10
5.26262e-06
7.33449e-10
5.2625e-06
8.38484e-10
5.26231e-06
7.61863e-10
5.26219e-06
8.55244e-10
5.26199e-06
7.73712e-10
5.26187e-06
8.68065e-10
5.26167e-06
7.95255e-10
5.26154e-06
8.99507e-10
5.26133e-06
8.35399e-10
5.2612e-06
9.41775e-10
5.26098e-06
8.74781e-10
5.26084e-06
9.74304e-10
5.26062e-06
9.0121e-10
5.26048e-06
9.98023e-10
5.26025e-06
9.27454e-10
5.2601e-06
1.03072e-09
5.25987e-06
9.6777e-10
5.2597e-06
1.07675e-09
5.25946e-06
1.01555e-09
5.25929e-06
1.12287e-09
5.25904e-06
1.05785e-09
5.25887e-06
1.16243e-09
5.25861e-06
1.09689e-09
5.25843e-06
1.20467e-09
5.25816e-06
1.14408e-09
5.25797e-06
1.25768e-09
5.2577e-06
1.201e-09
5.25749e-06
1.31673e-09
5.25721e-06
1.2598e-09
5.25699e-06
1.37521e-09
5.2567e-06
1.31831e-09
5.25647e-06
1.43614e-09
5.25617e-06
1.38315e-09
5.25593e-06
1.50656e-09
5.25561e-06
1.45883e-09
5.25536e-06
1.58703e-09
5.25503e-06
1.54265e-09
5.25476e-06
1.6738e-09
5.25441e-06
1.63231e-09
5.25413e-06
1.76761e-09
5.25376e-06
1.73165e-09
5.25346e-06
1.87419e-09
5.25308e-06
1.8465e-09
5.25275e-06
1.99801e-09
5.25235e-06
1.97942e-09
5.252e-06
2.14022e-09
5.25157e-06
2.13124e-09
5.25121e-06
2.30246e-09
5.25076e-06
2.30497e-09
5.25037e-06
2.48882e-09
5.24991e-06
2.50509e-09
5.24952e-06
2.70319e-09
5.24905e-06
2.73433e-09
5.24865e-06
2.94694e-09
5.24818e-06
2.99299e-09
5.24779e-06
3.21953e-09
5.24734e-06
3.27955e-09
5.24698e-06
3.51722e-09
5.24656e-06
3.58315e-09
5.24627e-06
3.80622e-09
5.24587e-06
3.88932e-09
5.24556e-06
4.15835e-09
4.3579e-09
5.24522e-06
5.69156e-06
2.17264e-10
5.69145e-06
1.6436e-10
5.69149e-06
4.35686e-10
5.69135e-06
2.57764e-10
5.6914e-06
4.34503e-10
5.69128e-06
1.91917e-10
5.69134e-06
3.01608e-10
5.69124e-06
4.9476e-13
5.69132e-06
4.71203e-11
5.69125e-06
-3.14243e-10
5.69136e-06
-2.96932e-10
5.69132e-06
-6.49525e-10
5.69148e-06
-5.89971e-10
5.69149e-06
-8.33462e-10
5.69165e-06
-6.57675e-10
5.69166e-06
-7.65705e-10
5.6918e-06
-4.63952e-10
5.69178e-06
-4.36362e-10
5.69187e-06
-5.31382e-11
5.69179e-06
3.41561e-11
5.69182e-06
4.14141e-10
5.69168e-06
4.26171e-10
5.69167e-06
6.70228e-10
5.69152e-06
5.45594e-10
5.6915e-06
6.20326e-10
5.69138e-06
3.4992e-10
5.6914e-06
3.0136e-10
5.69132e-06
-2.76785e-11
5.69138e-06
-7.80668e-11
5.69134e-06
-3.31914e-10
5.69143e-06
-2.60519e-10
5.6914e-06
-3.59221e-10
5.69147e-06
-1.33059e-10
5.6914e-06
-9.7662e-11
5.69143e-06
2.22965e-10
5.69133e-06
2.70104e-10
5.69132e-06
5.22591e-10
5.69119e-06
4.5902e-10
5.69117e-06
5.6412e-10
5.69106e-06
3.51676e-10
5.69106e-06
3.34297e-10
5.69098e-06
6.04265e-11
5.69101e-06
4.42297e-11
5.69096e-06
-1.5362e-10
5.691e-06
-4.822e-11
5.69095e-06
-9.43918e-11
5.69097e-06
1.4828e-10
5.69088e-06
1.88127e-10
5.69087e-06
4.27764e-10
5.69076e-06
4.12599e-10
5.69073e-06
5.38126e-10
5.69062e-06
3.91196e-10
5.69061e-06
3.90183e-10
5.69052e-06
1.69869e-10
5.69053e-06
1.60377e-10
5.69047e-06
-4.1408e-12
5.69049e-06
9.71891e-11
5.69041e-06
6.80076e-11
5.69041e-06
2.74039e-10
5.69032e-06
2.96249e-10
5.69029e-06
4.80282e-10
5.69018e-06
4.36685e-10
5.69014e-06
5.13538e-10
5.69004e-06
3.61254e-10
5.69002e-06
3.59527e-10
5.68993e-06
1.82747e-10
5.68993e-06
2.15967e-10
5.68985e-06
1.23816e-10
5.68984e-06
2.64835e-10
5.68975e-06
2.64329e-10
5.68972e-06
4.38707e-10
5.68961e-06
4.25289e-10
5.68957e-06
5.32876e-10
5.68946e-06
4.29297e-10
5.68942e-06
4.51375e-10
5.68933e-06
3.01059e-10
5.6893e-06
3.23695e-10
5.68921e-06
2.24948e-10
5.68919e-06
3.2802e-10
5.68909e-06
3.1351e-10
5.68906e-06
4.60035e-10
5.68894e-06
4.51997e-10
5.68889e-06
5.55785e-10
5.68877e-06
4.7915e-10
5.68872e-06
5.09822e-10
5.68862e-06
3.88303e-10
5.68858e-06
4.12624e-10
5.68848e-06
3.28252e-10
5.68844e-06
4.14671e-10
5.68833e-06
3.95919e-10
5.68828e-06
5.18816e-10
5.68816e-06
5.03151e-10
5.6881e-06
5.90396e-10
5.68798e-06
5.17727e-10
5.68792e-06
5.50193e-10
5.6878e-06
4.46606e-10
5.68775e-06
4.82936e-10
5.68764e-06
4.16672e-10
5.68758e-06
5.06012e-10
5.68747e-06
4.86748e-10
5.6874e-06
5.9736e-10
5.68727e-06
5.69134e-10
5.68719e-06
6.43681e-10
5.68706e-06
5.68828e-10
5.68699e-06
6.06779e-10
5.68686e-06
5.19335e-10
5.68679e-06
5.72608e-10
5.68667e-06
5.22101e-10
5.68659e-06
6.14247e-10
5.68646e-06
5.90603e-10
5.68638e-06
6.8506e-10
5.68624e-06
6.41542e-10
5.68615e-06
7.01388e-10
5.68601e-06
6.27085e-10
5.68592e-06
6.70416e-10
5.68579e-06
6.03141e-10
5.6857e-06
6.7013e-10
5.68556e-06
6.35419e-10
5.68546e-06
7.24704e-10
5.68532e-06
6.9832e-10
5.68521e-06
7.74673e-10
5.68506e-06
7.25375e-10
5.68496e-06
7.75669e-10
5.68481e-06
7.13351e-10
5.6847e-06
7.64254e-10
5.68455e-06
7.2e-10
5.68444e-06
7.92618e-10
5.68428e-06
7.68393e-10
5.68416e-06
8.46237e-10
5.684e-06
8.1586e-10
5.68388e-06
8.75645e-10
5.68371e-06
8.28351e-10
5.68358e-06
8.76329e-10
5.68341e-06
8.31351e-10
5.68328e-06
8.90495e-10
5.68311e-06
8.63328e-10
5.68298e-06
9.35278e-10
5.6828e-06
9.13929e-10
5.68265e-06
9.80257e-10
5.68247e-06
9.48041e-10
5.68232e-06
1.00166e-09
5.68213e-06
9.63109e-10
5.68198e-06
1.01791e-09
5.68179e-06
9.88566e-10
5.68163e-06
1.05486e-09
5.68143e-06
1.03511e-09
5.68127e-06
1.10468e-09
5.68106e-06
1.08181e-09
5.68089e-06
1.14422e-09
5.68068e-06
1.11423e-09
5.68051e-06
1.17367e-09
5.68029e-06
1.14606e-09
5.68011e-06
1.21276e-09
5.67988e-06
1.19335e-09
5.67969e-06
1.26671e-09
5.67946e-06
1.24926e-09
5.67926e-06
1.32111e-09
5.67902e-06
1.29933e-09
5.67881e-06
1.36822e-09
5.67856e-06
1.34566e-09
5.67835e-06
1.4181e-09
5.67809e-06
1.40094e-09
5.67787e-06
1.48005e-09
5.6776e-06
1.46737e-09
5.67737e-06
1.54921e-09
5.67709e-06
1.5364e-09
5.67685e-06
1.61802e-09
5.67656e-06
1.6052e-09
5.67631e-06
1.68945e-09
5.67601e-06
1.6809e-09
5.67575e-06
1.77134e-09
5.67544e-06
1.76869e-09
5.67516e-06
1.86459e-09
5.67484e-06
1.86582e-09
5.67455e-06
1.96509e-09
5.67421e-06
1.96956e-09
5.6739e-06
2.0733e-09
5.67355e-06
2.08368e-09
5.67323e-06
2.19494e-09
5.67286e-06
2.21382e-09
5.67253e-06
2.33384e-09
5.67215e-06
2.36136e-09
5.6718e-06
2.48953e-09
5.6714e-06
2.52532e-09
5.67104e-06
2.66187e-09
5.67064e-06
2.70712e-09
5.67028e-06
2.85364e-09
5.66987e-06
2.91004e-09
5.66951e-06
3.0675e-09
5.66911e-06
3.13528e-09
5.66875e-06
3.30297e-09
5.66836e-06
3.3809e-09
5.66802e-06
3.55679e-09
5.66766e-06
3.64162e-09
5.66736e-06
3.81573e-09
5.66705e-06
3.89616e-09
5.66677e-06
4.08626e-09
5.66647e-06
4.19414e-09
5.66622e-06
4.39989e-09
4.60345e-09
5.66598e-06
6.14594e-06
1.51612e-10
6.1459e-06
2.03115e-10
6.14593e-06
4.01607e-10
6.14585e-06
3.36576e-10
6.14587e-06
4.20339e-10
6.14579e-06
2.6808e-10
6.14581e-06
2.79424e-10
6.14575e-06
6.10418e-11
6.14579e-06
1.18714e-11
6.14574e-06
-2.68689e-10
6.14579e-06
-3.48596e-10
6.14576e-06
-6.2024e-10
6.14584e-06
-6.62032e-10
6.14585e-06
-8.46849e-10