/*--------------------------------*- C++ -*----------------------------------*\
| =========                 |                                                 |
| \\      /  F ield         | OpenFOAM: The Open Source CFD Toolbox           |
|  \\    /   O peration     | Version:  v1912                                 |
|   \\  /    A nd           | Website:  www.openfoam.com                      |
|    \\/     M anipulation  |                                                 |
\*---------------------------------------------------------------------------*/
FoamFile
{
    version     2.0;
    format      ascii;
    class       volVectorField;
    location    "0.2";
    object      U;
}
// * * * * * * * * * * * * * * * * * * * * * * * * * * * * * * * * * * * * * //

dimensions      [0 1 -1 0 0 0 0];


internalField   nonuniform List<vector> 
12000
(
(0.999438 8.65581e-05 0)
(1.00057 -9.27603e-05 0)
(0.999437 8.49503e-05 0)
(1.00055 -9.17181e-05 0)
(0.999397 8.54512e-05 0)
(1.0005 -9.05216e-05 0)
(0.99933 8.57147e-05 0)
(1.00043 -8.99137e-05 0)
(0.999263 8.54887e-05 0)
(1.00037 -8.9837e-05 0)
(0.999226 8.46446e-05 0)
(1.00036 -9.04804e-05 0)
(0.999248 8.30986e-05 0)
(1.00042 -9.13406e-05 0)
(0.999342 8.16355e-05 0)
(1.00054 -9.11309e-05 0)
(0.999491 8.10886e-05 0)
(1.0007 -8.99879e-05 0)
(0.999647 8.12616e-05 0)
(1.00083 -8.77742e-05 0)
(0.99974 8.26335e-05 0)
(1.00087 -8.47271e-05 0)
(0.999711 8.42155e-05 0)
(1.00077 -8.24268e-05 0)
(0.999555 8.41919e-05 0)
(1.00057 -8.18801e-05 0)
(0.999342 8.30682e-05 0)
(1.00038 -8.21763e-05 0)
(0.999195 8.14413e-05 0)
(1.00031 -8.30627e-05 0)
(0.999215 7.98215e-05 0)
(1.00042 -8.33736e-05 0)
(0.999396 7.94515e-05 0)
(1.00064 -8.21772e-05 0)
(0.99961 8.04935e-05 0)
(1.00081 -8.00385e-05 0)
(0.999689 8.22414e-05 0)
(1.00078 -7.79029e-05 0)
(0.999551 8.29572e-05 0)
(1.00056 -7.7397e-05 0)
(0.999288 8.2273e-05 0)
(1.00031 -7.76714e-05 0)
(0.999108 8.10946e-05 0)
(1.00024 -7.81657e-05 0)
(0.999166 8.01211e-05 0)
(1.00042 -7.77013e-05 0)
(0.999412 8.06416e-05 0)
(1.00067 -7.57695e-05 0)
(0.999603 8.22366e-05 0)
(1.00074 -7.35147e-05 0)
(0.999528 8.32744e-05 0)
(1.00054 -7.25765e-05 0)
(0.999237 8.27253e-05 0)
(1.00024 -7.28103e-05 0)
(0.999022 8.1613e-05 0)
(1.00017 -7.32859e-05 0)
(0.999096 8.07198e-05 0)
(1.00037 -7.27629e-05 0)
(0.999351 8.15003e-05 0)
(1.0006 -7.08216e-05 0)
(0.99949 8.31348e-05 0)
(1.0006 -6.89246e-05 0)
(0.999334 8.36979e-05 0)
(1.00034 -6.85328e-05 0)
(0.999031 8.32533e-05 0)
(1.00009 -6.87738e-05 0)
(0.998919 8.25917e-05 0)
(1.00015 -6.89503e-05 0)
(0.999114 8.27085e-05 0)
(1.00042 -6.75711e-05 0)
(0.999343 8.41942e-05 0)
(1.00053 -6.56163e-05 0)
(0.99929 8.53523e-05 0)
(1.00033 -6.4836e-05 0)
(0.998998 8.52119e-05 0)
(1.00005 -6.49173e-05 0)
(0.998816 8.46965e-05 0)
(1.00003 -6.51098e-05 0)
(0.998946 8.46979e-05 0)
(1.00026 -6.38913e-05 0)
(0.999174 8.62136e-05 0)
(1.0004 -6.18684e-05 0)
(0.999154 8.7547e-05 0)
(1.00023 -6.09917e-05 0)
(0.998879 8.75964e-05 0)
(0.999957 -6.09572e-05 0)
(0.998696 8.72638e-05 0)
(0.999934 -6.11031e-05 0)
(0.998817 8.7476e-05 0)
(1.00015 -5.99046e-05 0)
(0.999019 8.90772e-05 0)
(1.00026 -5.8089e-05 0)
(0.998967 9.03635e-05 0)
(1.00007 -5.74255e-05 0)
(0.998697 9.05101e-05 0)
(0.999832 -5.75084e-05 0)
(0.998559 9.04852e-05 0)
(0.999851 -5.73717e-05 0)
(0.998695 9.13182e-05 0)
(1.00005 -5.59555e-05 0)
(0.998839 9.31966e-05 0)
(1.00008 -5.43629e-05 0)
(0.99872 9.44237e-05 0)
(0.999864 -5.38764e-05 0)
(0.998473 9.47701e-05 0)
(0.999693 -5.38659e-05 0)
(0.998418 9.52519e-05 0)
(0.999777 -5.32935e-05 0)
(0.998569 9.66814e-05 0)
(0.999928 -5.17583e-05 0)
(0.998622 9.85664e-05 0)
(0.999863 -5.05973e-05 0)
(0.998436 9.96078e-05 0)
(0.999641 -5.02862e-05 0)
(0.998243 0.000100247 0)
(0.999561 -4.99518e-05 0)
(0.99827 0.000101433 0)
(0.999679 -4.88047e-05 0)
(0.998385 0.000103445 0)
(0.99974 -4.72085e-05 0)
(0.998327 0.000105368 0)
(0.999594 -4.62074e-05 0)
(0.998122 0.000106646 0)
(0.999427 -4.56463e-05 0)
(0.998024 0.000107995 0)
(0.999442 -4.46935e-05 0)
(0.998097 0.000110034 0)
(0.999538 -4.30995e-05 0)
(0.998126 0.000112459 0)
(0.99949 -4.16074e-05 0)
(0.997978 0.000114487 0)
(0.999318 -4.06486e-05 0)
(0.997811 0.000116261 0)
(0.999234 -3.96886e-05 0)
(0.997793 0.000118446 0)
(0.99929 -3.82332e-05 0)
(0.997838 0.000121134 0)
(0.999306 -3.65538e-05 0)
(0.997764 0.000123797 0)
(0.999186 -3.519e-05 0)
(0.997598 0.000126201 0)
(0.999058 -3.39919e-05 0)
(0.997506 0.000128814 0)
(0.999047 -3.24583e-05 0)
(0.997513 0.000131945 0)
(0.999072 -3.05532e-05 0)
(0.997476 0.000135334 0)
(0.998999 -2.8663e-05 0)
(0.997335 0.000138684 0)
(0.998864 -2.6856e-05 0)
(0.997199 0.000142223 0)
(0.998796 -2.47663e-05 0)
(0.997151 0.000146294 0)
(0.998795 -2.22333e-05 0)
(0.997118 0.000150767 0)
(0.998753 -1.95884e-05 0)
(0.997009 0.000155244 0)
(0.998639 -1.69891e-05 0)
(0.996861 0.000159941 0)
(0.998537 -1.41368e-05 0)
(0.996764 0.00016512 0)
(0.998494 -1.08694e-05 0)
(0.996701 0.000170832 0)
(0.998448 -7.22644e-06 0)
(0.996598 0.000176969 0)
(0.998346 -3.32445e-06 0)
(0.996447 0.000183506 0)
(0.998228 9.07617e-07 0)
(0.996312 0.000190588 0)
(0.998146 5.65523e-06 0)
(0.996211 0.000198326 0)
(0.99808 1.087e-05 0)
(0.996095 0.000206633 0)
(0.997979 1.65341e-05 0)
(0.995938 0.000215553 0)
(0.997848 2.27017e-05 0)
(0.995769 0.000225226 0)
(0.997727 2.95839e-05 0)
(0.995616 0.0002359 0)
(0.997618 3.7406e-05 0)
(0.995458 0.000247769 0)
(0.997488 4.63257e-05 0)
(0.995267 0.000261008 0)
(0.997327 5.65586e-05 0)
(0.99505 0.000275925 0)
(0.997155 6.84894e-05 0)
(0.994828 0.000293012 0)
(0.996978 8.27076e-05 0)
(0.99459 0.000313025 0)
(0.996775 0.000100204 0)
(0.994311 0.000337373 0)
(0.996525 0.000123038 0)
(0.993978 0.000369215 0)
(0.996224 0.000156055 0)
(0.993589 0.000416033 0)
(0.995862 0.000210494 0)
(0.993125 0.0004943 0)
(0.995412 0.000309424 0)
(0.992552 0.000634977 0)
(0.994845 0.000492004 0)
(0.999751 8.3372e-05 0)
(1.00025 -9.4387e-05 0)
(0.999756 8.46138e-05 0)
(1.00023 -8.90834e-05 0)
(0.999719 8.93228e-05 0)
(1.00017 -8.6428e-05 0)
(0.999656 8.97604e-05 0)
(1.0001 -8.8312e-05 0)
(0.999592 8.63979e-05 0)
(1.00004 -9.33261e-05 0)
(0.999558 8.06581e-05 0)
(1.00003 -9.96859e-05 0)
(0.999583 7.45236e-05 0)
(1.00008 -0.000104934 0)
(0.99968 7.08217e-05 0)
(1.0002 -0.00010572 0)
(0.999833 7.19683e-05 0)
(1.00036 -0.000101124 0)
(0.999993 7.83208e-05 0)
(1.00049 -9.16463e-05 0)
(1.00009 8.8202e-05 0)
(1.00052 -8.10036e-05 0)
(1.00006 9.66301e-05 0)
(1.00042 -7.48583e-05 0)
(0.999908 9.82921e-05 0)
(1.00022 -7.60737e-05 0)
(0.999699 9.33658e-05 0)
(1.00002 -8.26683e-05 0)
(0.999555 8.52691e-05 0)
(0.999944 -9.02806e-05 0)
(0.999579 7.91137e-05 0)
(1.00005 -9.33216e-05 0)
(0.999764 7.9529e-05 0)
(1.00027 -8.91277e-05 0)
(0.999983 8.68746e-05 0)
(1.00043 -8.03289e-05 0)
(1.00006 9.5968e-05 0)
(1.0004 -7.31366e-05 0)
(0.99993 9.9931e-05 0)
(1.00017 -7.33508e-05 0)
(0.99967 9.65905e-05 0)
(0.999923 -7.92127e-05 0)
(0.999494 8.99308e-05 0)
(0.999851 -8.5276e-05 0)
(0.999556 8.60208e-05 0)
(1.00002 -8.56742e-05 0)
(0.999806 8.9292e-05 0)
(1.00027 -7.88292e-05 0)
(1 9.75804e-05 0)
(1.00034 -7.08991e-05 0)
(0.999929 0.000102852 0)
(1.00013 -6.90136e-05 0)
(0.999642 0.000100827 0)
(0.999836 -7.36775e-05 0)
(0.99943 9.49995e-05 0)
(0.999756 -7.8945e-05 0)
(0.999509 9.17957e-05 0)
(0.999953 -7.88392e-05 0)
(0.999769 9.57647e-05 0)
(1.00019 -7.22692e-05 0)
(0.999912 0.000103448 0)
(1.00018 -6.61798e-05 0)
(0.99976 0.000106709 0)
(0.999909 -6.66688e-05 0)
(0.999461 0.000103844 0)
(0.999662 -7.13299e-05 0)
(0.999353 9.97663e-05 0)
(0.999715 -7.4316e-05 0)
(0.999553 0.0001002 0)
(0.999976 -7.08129e-05 0)
(0.999787 0.000106528 0)
(1.00008 -6.4426e-05 0)
(0.999737 0.000111626 0)
(0.999877 -6.2639e-05 0)
(0.999449 0.00011086 0)
(0.999594 -6.5845e-05 0)
(0.999272 0.000107305 0)
(0.999569 -6.89952e-05 0)
(0.999408 0.00010684 0)
(0.999796 -6.65485e-05 0)
(0.999641 0.000112201 0)
(0.999931 -6.04629e-05 0)
(0.999624 0.000117456 0)
(0.999754 -5.80509e-05 0)
(0.999354 0.00011751 0)
(0.999478 -6.03763e-05 0)
(0.999176 0.00011476 0)
(0.99945 -6.31043e-05 0)
(0.999303 0.000114784 0)
(0.999662 -6.06716e-05 0)
(0.999511 0.000120049 0)
(0.999764 -5.53649e-05 0)
(0.999464 0.000124801 0)
(0.999571 -5.36901e-05 0)
(0.9992 0.000124902 0)
(0.999325 -5.59886e-05 0)
(0.999067 0.000123193 0)
(0.999338 -5.75753e-05 0)
(0.999211 0.000124881 0)
(0.999529 -5.4448e-05 0)
(0.999361 0.000130599 0)
(0.999554 -4.98933e-05 0)
(0.999248 0.000134781 0)
(0.999332 -4.90362e-05 0)
(0.999007 0.00013501 0)
(0.999153 -5.09174e-05 0)
(0.998959 0.000134858 0)
(0.999231 -5.08467e-05 0)
(0.999118 0.000138331 0)
(0.999376 -4.702e-05 0)
(0.999178 0.000143953 0)
(0.999302 -4.36664e-05 0)
(0.998999 0.000147002 0)
(0.999073 -4.36732e-05 0)
(0.998813 0.000147488 0)
(0.998985 -4.44772e-05 0)
(0.998848 0.00014933 0)
(0.999097 -4.23806e-05 0)
(0.998971 0.000154397 0)
(0.99915 -3.81451e-05 0)
(0.998921 0.00015966 0)
(0.998995 -3.56549e-05 0)
(0.998724 0.000162306 0)
(0.998819 -3.54317e-05 0)
(0.998635 0.000164174 0)
(0.998827 -3.42939e-05 0)
(0.998717 0.000168349 0)
(0.998915 -3.05498e-05 0)
(0.998754 0.000174376 0)
(0.998857 -2.65711e-05 0)
(0.998616 0.000179197 0)
(0.998675 -2.46381e-05 0)
(0.998458 0.000182367 0)
(0.998582 -2.33344e-05 0)
(0.99845 0.000186411 0)
(0.998628 -2.02365e-05 0)
(0.998506 0.000192562 0)
(0.998635 -1.57678e-05 0)
(0.998442 0.000199035 0)
(0.998503 -1.21896e-05 0)
(0.998286 0.000204239 0)
(0.998364 -9.72084e-06 0)
(0.998206 0.000209369 0)
(0.998343 -6.44595e-06 0)
(0.998225 0.000216146 0)
(0.998356 -1.58029e-06 0)
(0.998201 0.000224129 0)
(0.99827 3.51342e-06 0)
(0.998072 0.000231779 0)
(0.998123 7.8779e-06 0)
(0.997949 0.000239174 0)
(0.998041 1.24905e-05 0)
(0.997916 0.000247684 0)
(0.998028 1.84421e-05 0)
(0.997897 0.000257611 0)
(0.997971 2.51779e-05 0)
(0.997802 0.000267893 0)
(0.997841 3.17775e-05 0)
(0.99767 0.000278241 0)
(0.997724 3.85565e-05 0)
(0.997589 0.000289399 0)
(0.997666 4.6367e-05 0)
(0.997544 0.000302001 0)
(0.997604 5.5392e-05 0)
(0.997458 0.000315763 0)
(0.997484 6.50946e-05 0)
(0.997326 0.00033025 0)
(0.997348 7.53684e-05 0)
(0.99721 0.000345749 0)
(0.997248 8.67861e-05 0)
(0.997129 0.000362815 0)
(0.997163 9.96159e-05 0)
(0.997035 0.000381486 0)
(0.997042 0.000113788 0)
(0.996899 0.000401667 0)
(0.99689 0.000129265 0)
(0.996754 0.000423574 0)
(0.996748 0.000146539 0)
(0.996626 0.000447899 0)
(0.996617 0.00016632 0)
(0.996494 0.000475272 0)
(0.996465 0.000189117 0)
(0.99633 0.00050618 0)
(0.996281 0.000215491 0)
(0.996144 0.00054142 0)
(0.996085 0.000246528 0)
(0.995953 0.000582444 0)
(0.995885 0.000284047 0)
(0.995751 0.000631576 0)
(0.995661 0.000331066 0)
(0.995513 0.000692973 0)
(0.995394 0.000393401 0)
(0.995232 0.00077491 0)
(0.995089 0.000482623 0)
(0.994919 0.000893323 0)
(0.994754 0.000620044 0)
(0.994577 0.00107604 0)
(0.994392 0.000840847 0)
(0.99421 0.00136612 0)
(0.994007 0.00119559 0)
(0.999941 6.65321e-05 0)
(1.00007 -6.60273e-05 0)
(0.999949 7.39433e-05 0)
(1.00005 -5.62945e-05 0)
(0.999909 8.07324e-05 0)
(0.999989 -5.35244e-05 0)
(0.999843 7.80458e-05 0)
(0.999915 -6.08619e-05 0)
(0.999776 6.62807e-05 0)
(0.999857 -7.529e-05 0)
(0.99974 5.00333e-05 0)
(0.999844 -9.08556e-05 0)
(0.999764 3.56925e-05 0)
(0.9999 -0.000101155 0)
(0.99986 2.93912e-05 0)
(1.00002 -0.000100961 0)
(1.00001 3.46204e-05 0)
(1.00019 -8.82643e-05 0)
(1.00017 5.16268e-05 0)
(1.00032 -6.60556e-05 0)
(1.00027 7.38991e-05 0)
(1.00035 -4.4103e-05 0)
(1.00024 9.00102e-05 0)
(1.00025 -3.36487e-05 0)
(1.00008 9.12802e-05 0)
(1.00005 -3.89794e-05 0)
(0.999863 7.78367e-05 0)
(0.99985 -5.64134e-05 0)
(0.999718 5.75817e-05 0)
(0.999779 -7.42281e-05 0)
(0.999742 4.41889e-05 0)
(0.999892 -7.93703e-05 0)
(0.999929 4.68386e-05 0)
(1.00011 -6.82645e-05 0)
(1.00015 6.3995e-05 0)
(1.00028 -4.78781e-05 0)
(1.00023 8.29951e-05 0)
(1.00025 -3.32173e-05 0)
(1.00009 8.95275e-05 0)
(1.00002 -3.52609e-05 0)
(0.999823 7.94293e-05 0)
(0.999768 -5.05274e-05 0)
(0.999644 6.20785e-05 0)
(0.9997 -6.48981e-05 0)
(0.999707 5.33432e-05 0)
(0.999877 -6.46469e-05 0)
(0.999959 6.12564e-05 0)
(1.00013 -4.90463e-05 0)
(1.00015 7.92214e-05 0)
(1.0002 -3.18021e-05 0)
(1.00008 8.97726e-05 0)
(0.999989 -2.89941e-05 0)
(0.999782 8.34136e-05 0)
(0.999693 -4.10472e-05 0)
(0.999569 6.83354e-05 0)
(0.999617 -5.34565e-05 0)
(0.999649 6.12695e-05 0)
(0.999819 -5.21762e-05 0)
(0.99991 6.98945e-05 0)
(1.00006 -3.74872e-05 0)
(1.00005 8.57316e-05 0)
(1.00005 -2.4538e-05 0)
(0.999894 9.17216e-05 0)
(0.999777 -2.64248e-05 0)
(0.99959 8.29046e-05 0)
(0.99953 -3.84359e-05 0)
(0.999482 7.16844e-05 0)
(0.999588 -4.4723e-05 0)
(0.999684 7.23528e-05 0)
(0.999854 -3.66295e-05 0)
(0.999918 8.51973e-05 0)
(0.999965 -2.25557e-05 0)
(0.999863 9.52651e-05 0)
(0.999756 -1.87262e-05 0)
(0.999569 9.18307e-05 0)
(0.999473 -2.69679e-05 0)
(0.99939 8.16332e-05 0)
(0.999452 -3.4207e-05 0)
(0.999527 7.95975e-05 0)
(0.999685 -2.91522e-05 0)
(0.999761 8.96716e-05 0)
(0.999821 -1.64039e-05 0)
(0.999741 0.000100003 0)
(0.999643 -1.10444e-05 0)
(0.999465 9.86983e-05 0)
(0.999366 -1.71437e-05 0)
(0.999286 9.02701e-05 0)
(0.999342 -2.32745e-05 0)
(0.999415 8.88653e-05 0)
(0.999559 -1.84216e-05 0)
(0.999623 9.83923e-05 0)
(0.999663 -7.22486e-06 0)
(0.999572 0.000107348 0)
(0.999467 -3.17041e-06 0)
(0.999303 0.000106038 0)
(0.999221 -8.52892e-06 0)
(0.99917 9.99018e-05 0)
(0.999238 -1.2359e-05 0)
(0.999316 0.000101065 0)
(0.999433 -6.31956e-06 0)
(0.999466 0.00011078 0)
(0.999459 3.3371e-06 0)
(0.999349 0.000118003 0)
(0.999235 5.63381e-06 0)
(0.999103 0.000116373 0)
(0.999058 1.30741e-06 0)
(0.999056 0.000113077 0)
(0.99914 9.16137e-07 0)
(0.999216 0.00011748 0)
(0.999289 8.5353e-06 0)
(0.999274 0.00012683 0)
(0.999215 1.60415e-05 0)
(0.99909 0.000131313 0)
(0.998986 1.63262e-05 0)
(0.998901 0.000129466 0)
(0.998901 1.40297e-05 0)
(0.998937 0.000129796 0)
(0.999016 1.76307e-05 0)
(0.99906 0.000137044 0)
(0.999072 2.61881e-05 0)
(0.999006 0.000145263 0)
(0.998917 3.15624e-05 0)
(0.998805 0.000147843 0)
(0.998742 3.15643e-05 0)
(0.998715 0.0001478 0)
(0.998754 3.28705e-05 0)
(0.998798 0.000152318 0)
(0.998845 3.9831e-05 0)
(0.998834 0.000161126 0)
(0.998789 4.78761e-05 0)
(0.998692 0.000167657 0)
(0.998607 5.15213e-05 0)
(0.998531 0.000169972 0)
(0.998516 5.30914e-05 0)
(0.998524 0.00017338 0)
(0.998566 5.8264e-05 0)
(0.998579 0.000181348 0)
(0.998574 6.68178e-05 0)
(0.998513 0.000190342 0)
(0.998443 7.37268e-05 0)
(0.998354 0.000196269 0)
(0.998305 7.76869e-05 0)
(0.998273 0.000201049 0)
(0.998286 8.2759e-05 0)
(0.998293 0.000208885 0)
(0.998302 9.1329e-05 0)
(0.998267 0.00021941 0)
(0.998218 0.00010064 0)
(0.998136 0.000228959 0)
(0.998071 0.000107925 0)
(0.998011 0.000236893 0)
(0.997992 0.000114846 0)
(0.997978 0.000246235 0)
(0.997981 0.000124281 0)
(0.997959 0.000258437 0)
(0.997927 0.000135743 0)
(0.997862 0.000271537 0)
(0.997798 0.000146841 0)
(0.997728 0.000283876 0)
(0.997683 0.000157463 0)
(0.997646 0.000296827 0)
(0.997628 0.000169713 0)
(0.997601 0.0003122 0)
(0.997569 0.000184335 0)
(0.997514 0.000329504 0)
(0.997452 0.000200038 0)
(0.997381 0.00034741 0)
(0.997318 0.000216163 0)
(0.997264 0.000366232 0)
(0.997222 0.000233835 0)
(0.997183 0.000387372 0)
(0.99714 0.000254137 0)
(0.997088 0.000411257 0)
(0.997023 0.000276856 0)
(0.996952 0.00043734 0)
(0.996876 0.00030156 0)
(0.996807 0.000465691 0)
(0.996739 0.00032896 0)
(0.99668 0.000497508 0)
(0.996614 0.000360405 0)
(0.99655 0.000533995 0)
(0.996469 0.00039681 0)
(0.996389 0.000575872 0)
(0.996293 0.000438952 0)
(0.996206 0.000624289 0)
(0.996108 0.000488582 0)
(0.996021 0.000681737 0)
(0.995922 0.000548949 0)
(0.995829 0.000752264 0)
(0.995717 0.000624995 0)
(0.99561 0.000841964 0)
(0.995482 0.000724297 0)
(0.995362 0.000960269 0)
(0.995226 0.000858351 0)
(0.995103 0.00112073 0)
(0.994967 0.00104241 0)
(0.994844 0.00133965 0)
(0.994709 0.00129296 0)
(0.994587 0.00163261 0)
(0.994455 0.00162362 0)
(0.999992 4.96001e-05 0)
(1.00002 -3.04038e-05 0)
(0.999998 6.26482e-05 0)
(0.999998 -2.10412e-05 0)
(0.999956 6.69715e-05 0)
(0.999938 -2.15133e-05 0)
(0.999885 6.00005e-05 0)
(0.999863 -3.46119e-05 0)
(0.999815 4.06573e-05 0)
(0.999804 -5.77824e-05 0)
(0.999777 1.51217e-05 0)
(0.999794 -8.21398e-05 0)
(0.999801 -6.34813e-06 0)
(0.999854 -9.65867e-05 0)
(0.999899 -1.35782e-05 0)
(0.999984 -9.34432e-05 0)
(1.00005 -1.69298e-06 0)
(1.00015 -7.09917e-05 0)
(1.00022 2.71651e-05 0)
(1.00029 -3.62968e-05 0)
(1.00031 6.09261e-05 0)
(1.00032 -4.95079e-06 0)
(1.00027 8.28009e-05 0)
(1.00021 7.42594e-06 0)
(1.00011 8.15855e-05 0)
(1.00001 -4.56891e-06 0)
(0.999888 5.84537e-05 0)
(0.999806 -3.35715e-05 0)
(0.999742 2.69346e-05 0)
(0.99974 -6.02329e-05 0)
(0.99977 8.71e-06 0)
(0.99986 -6.56029e-05 0)
(0.999962 1.6154e-05 0)
(1.00009 -4.55598e-05 0)
(1.00018 4.43502e-05 0)
(1.00026 -1.34925e-05 0)
(1.00026 7.30451e-05 0)
(1.00022 6.40472e-06 0)
(1.00011 7.99743e-05 0)
(0.999985 2.35899e-07 0)
(0.999841 6.15202e-05 0)
(0.999732 -2.53288e-05 0)
(0.999662 3.40388e-05 0)
(0.999668 -4.69874e-05 0)
(0.99973 2.27054e-05 0)
(0.999854 -4.42959e-05 0)
(0.999988 3.78137e-05 0)
(1.00012 -1.89915e-05 0)
(1.00018 6.59109e-05 0)
(1.00018 6.37167e-06 0)
(1.0001 8.05035e-05 0)
(0.999962 8.07529e-06 0)
(0.999796 6.83496e-05 0)
(0.999663 -1.28157e-05 0)
(0.999581 4.3902e-05 0)
(0.999591 -3.19099e-05 0)
(0.999667 3.48017e-05 0)
(0.999801 -2.77129e-05 0)
(0.999935 5.02666e-05 0)
(1.00004 -4.05417e-06 0)
(1.00007 7.47148e-05 0)
(1.00003 1.44197e-05 0)
(0.999908 8.19835e-05 0)
(0.999752 9.34554e-06 0)
(0.999599 6.64611e-05 0)
(0.999505 -1.08578e-05 0)
(0.999493 4.85208e-05 0)
(0.99957 -1.96123e-05 0)
(0.999702 5.14248e-05 0)
(0.999843 -5.25962e-06 0)
(0.999938 7.24077e-05 0)
(0.999953 1.61243e-05 0)
(0.999877 8.68696e-05 0)
(0.999738 2.03991e-05 0)
(0.999576 7.97171e-05 0)
(0.999451 5.94467e-06 0)
(0.999397 6.30965e-05 0)
(0.999436 -5.23612e-06 0)
(0.99954 6.08632e-05 0)
(0.999676 3.57768e-06 0)
(0.999778 7.72947e-05 0)
(0.999813 2.30227e-05 0)
(0.999753 9.25445e-05 0)
(0.999628 3.00656e-05 0)
(0.99947 8.91885e-05 0)
(0.999347 1.92776e-05 0)
(0.999291 7.55241e-05 0)
(0.999328 9.70074e-06 0)
(0.999426 7.38188e-05 0)
(0.999552 1.76823e-05 0)
(0.999638 8.878e-05 0)
(0.999655 3.467e-05 0)
(0.999583 0.000101925 0)
(0.999454 4.00238e-05 0)
(0.999307 9.869e-05 0)
(0.999205 3.06891e-05 0)
(0.999175 8.84294e-05 0)
(0.999227 2.46467e-05 0)
(0.999327 9.0223e-05 0)
(0.999428 3.42544e-05 0)
(0.999479 0.00010502 0)
(0.999453 4.89089e-05 0)
(0.999356 0.000115263 0)
(0.999223 5.16779e-05 0)
(0.999106 0.00011147 0)
(0.999045 4.42193e-05 0)
(0.999061 0.000105503 0)
(0.999134 4.34006e-05 0)
(0.999226 0.000111842 0)
(0.999286 5.51479e-05 0)
(0.999284 0.000125669 0)
(0.99921 6.63698e-05 0)
(0.999094 0.000131507 0)
(0.998976 6.60128e-05 0)
(0.998903 0.00012733 0)
(0.998893 6.1703e-05 0)
(0.998942 0.000126804 0)
(0.999015 6.68733e-05 0)
(0.999069 0.000137259 0)
(0.999071 7.97709e-05 0)
(0.999012 0.000148994 0)
(0.998913 8.73787e-05 0)
(0.998807 0.000151589 0)
(0.998736 8.63681e-05 0)
(0.998718 0.00015005 0)
(0.998752 8.7504e-05 0)
(0.998805 0.000155819 0)
(0.998847 9.766e-05 0)
(0.998842 0.000168322 0)
(0.998789 0.000109413 0)
(0.998696 0.000177013 0)
(0.998603 0.000114037 0)
(0.998533 0.000178875 0)
(0.998513 0.000115309 0)
(0.998529 0.000182442 0)
(0.998567 0.000122348 0)
(0.998587 0.000193247 0)
(0.998577 0.000134773 0)
(0.99852 0.000205544 0)
(0.998443 0.000144455 0)
(0.998359 0.000212735 0)
(0.998304 0.000149275 0)
(0.998278 0.000217897 0)
(0.998288 0.000155775 0)
(0.998302 0.000227814 0)
(0.998306 0.00016783 0)
(0.998277 0.000241868 0)
(0.998221 0.000180952 0)
(0.998143 0.000254094 0)
(0.998073 0.000190619 0)
(0.998019 0.000263437 0)
(0.997995 0.000199512 0)
(0.997988 0.000274812 0)
(0.997987 0.000212357 0)
(0.997971 0.000290609 0)
(0.997933 0.000228343 0)
(0.997874 0.000307503 0)
(0.997804 0.000243444 0)
(0.99774 0.000322754 0)
(0.99769 0.000257468 0)
(0.997659 0.000338629 0)
(0.997637 0.000273881 0)
(0.997616 0.000358079 0)
(0.99758 0.000293864 0)
(0.997531 0.000380222 0)
(0.997464 0.000315194 0)
(0.997398 0.00040276 0)
(0.997332 0.000336694 0)
(0.997283 0.000426176 0)
(0.997238 0.000360237 0)
(0.997205 0.000452844 0)
(0.99716 0.000387678 0)
(0.997113 0.000483439 0)
(0.997046 0.000418514 0)
(0.996979 0.000516852 0)
(0.996902 0.000451848 0)
(0.996837 0.000553051 0)
(0.99677 0.00048872 0)
(0.996715 0.000593872 0)
(0.996651 0.000531204 0)
(0.99659 0.000641094 0)
(0.996513 0.000580531 0)
(0.996436 0.000695546 0)
(0.996346 0.000637551 0)
(0.996263 0.000758615 0)
(0.996174 0.000704559 0)
(0.996093 0.00083363 0)
(0.996006 0.000785789 0)
(0.995922 0.000925497 0)
(0.995827 0.000886588 0)
(0.995732 0.00103992 0)
(0.995627 0.00101304 0)
(0.995526 0.00118344 0)
(0.99542 0.00117214 0)
(0.995321 0.00136337 0)
(0.995222 0.00137113 0)
(0.995128 0.00158635 0)
(0.995034 0.00161554 0)
(0.994943 0.00185629 0)
(0.994853 0.00190723 0)
(1 3.49022e-05 0)
(1.00001 -2.50777e-06 0)
(1 5.31242e-05 0)
(0.999984 6.24448e-06 0)
(0.999955 5.44478e-05 0)
(0.999921 1.61503e-06 0)
(0.99988 4.35273e-05 0)
(0.999843 -1.56622e-05 0)
(0.999807 1.9743e-05 0)
(0.999783 -4.42436e-05 0)
(0.999768 -1.17603e-05 0)
(0.999774 -7.49136e-05 0)
(0.999795 -3.85413e-05 0)
(0.999839 -9.32031e-05 0)
(0.999899 -4.69151e-05 0)
(0.999976 -8.82482e-05 0)
(1.00006 -2.93823e-05 0)
(1.00015 -5.77231e-05 0)
(1.00023 9.8395e-06 0)
(1.00029 -1.27102e-05 0)
(1.00032 5.30963e-05 0)
(1.00031 2.56471e-05 0)
(1.00027 7.95468e-05 0)
(1.0002 3.88339e-05 0)
(1.0001 7.58142e-05 0)
(0.999986 2.06232e-05 0)
(0.999874 4.42728e-05 0)
(0.999784 -1.77038e-05 0)
(0.999729 4.48709e-06 0)
(0.999723 -5.03891e-05 0)
(0.999765 -1.63371e-05 0)
(0.999852 -5.50266e-05 0)
(0.999967 -4.06255e-06 0)
(1.00009 -2.74021e-05 0)
(1.00019 3.36379e-05 0)
(1.00026 1.33739e-05 0)
(1.00026 6.93154e-05 0)
(1.00021 3.65474e-05 0)
(1.0001 7.59828e-05 0)
(0.999967 2.61486e-05 0)
(0.999826 5.05001e-05 0)
(0.999711 -7.90528e-06 0)
(0.999648 1.54829e-05 0)
(0.999654 -3.43771e-05 0)
(0.999727 3.2715e-06 0)
(0.999851 -2.85497e-05 0)
(0.999994 2.54252e-05 0)
(1.00012 5.16679e-06 0)
(1.00019 6.16287e-05 0)
(1.00018 3.59207e-05 0)
(1.00009 7.81341e-05 0)
(0.999947 3.54386e-05 0)
(0.99978 6.04134e-05 0)
(0.999642 6.92828e-06 0)
(0.999567 2.9094e-05 0)
(0.999578 -1.66785e-05 0)
(0.999664 1.94712e-05 0)
(0.9998 -8.98132e-06 0)
(0.99994 4.21855e-05 0)
(1.00004 2.2505e-05 0)
(1.00008 7.29888e-05 0)
(1.00002 4.42681e-05 0)
(0.9999 7.998e-05 0)
(0.999735 3.54619e-05 0)
(0.999582 5.85166e-05 0)
(0.999487 9.03477e-06 0)
(0.999483 3.63077e-05 0)
(0.999564 -7.01137e-07 0)
(0.999703 4.21816e-05 0)
(0.999846 1.95296e-05 0)
(0.999942 6.99994e-05 0)
(0.999952 4.61542e-05 0)
(0.999872 8.70682e-05 0)
(0.999725 4.94294e-05 0)
(0.999561 7.60008e-05 0)
(0.999434 2.95399e-05 0)
(0.999384 5.48403e-05 0)
(0.999427 1.60255e-05 0)
(0.999539 5.37826e-05 0)
(0.999677 2.90631e-05 0)
(0.999782 7.62643e-05 0)
(0.999813 5.3933e-05 0)
(0.99975 9.49044e-05 0)
(0.999617 6.13637e-05 0)
(0.999457 8.91337e-05 0)
(0.999331 4.64813e-05 0)
(0.999279 7.17935e-05 0)
(0.999319 3.47569e-05 0)
(0.999425 7.09468e-05 0)
(0.999553 4.62038e-05 0)
(0.999642 9.08829e-05 0)
(0.999655 6.78024e-05 0)
(0.999579 0.000106881 0)
(0.999443 7.33259e-05 0)
(0.999295 0.000101338 0)
(0.99919 6.04623e-05 0)
(0.999165 8.81415e-05 0)
(0.99922 5.34411e-05 0)
(0.999327 9.16805e-05 0)
(0.99943 6.69707e-05 0)
(0.999482 0.000111261 0)
(0.999452 8.56841e-05 0)
(0.999351 0.000123532 0)
(0.999213 8.80638e-05 0)
(0.999094 0.000117502 0)
(0.999034 7.79899e-05 0)
(0.999054 0.00010999 0)
(0.999131 7.76955e-05 0)
(0.999228 0.000119008 0)
(0.999289 9.35308e-05 0)
(0.999285 0.000136844 0)
(0.999207 0.00010752 0)
(0.999086 0.000143369 0)
(0.998966 0.000106095 0)
(0.998893 0.000137259 0)
(0.998886 0.000100433 0)
(0.998939 0.0001369 0)
(0.999016 0.00010781 0)
(0.999072 0.000150937 0)
(0.999074 0.000124715 0)
(0.999012 0.000165726 0)
(0.998908 0.000133848 0)
(0.998799 0.000168134 0)
(0.998728 0.000131887 0)
(0.998712 0.000165778 0)
(0.99875 0.0001335 0)
(0.998807 0.000173496 0)
(0.998851 0.000146984 0)
(0.998845 0.000189601 0)
(0.998789 0.000161892 0)
(0.998693 0.000200099 0)
(0.998598 0.000167209 0)
(0.998528 0.000201824 0)
(0.99851 0.000168652 0)
(0.998529 0.000206344 0)
(0.99857 0.000178052 0)
(0.998593 0.000220358 0)
(0.998581 0.000194193 0)
(0.998523 0.000235784 0)
(0.998442 0.000206285 0)
(0.998358 0.000244282 0)
(0.998302 0.000212122 0)
(0.998279 0.000250437 0)
(0.99829 0.000220555 0)
(0.998308 0.000263015 0)
(0.998313 0.000236221 0)
(0.998285 0.000280672 0)
(0.998226 0.000252872 0)
(0.998148 0.000295558 0)
(0.998075 0.000264875 0)
(0.998023 0.000306748 0)
(0.997999 0.000276141 0)
(0.997996 0.000320841 0)
(0.997996 0.000292723 0)
(0.997983 0.000340597 0)
(0.997944 0.000313126 0)
(0.997884 0.000361367 0)
(0.997813 0.000332068 0)
(0.99775 0.000379829 0)
(0.9977 0.000349649 0)
(0.997672 0.000399199 0)
(0.997652 0.000370472 0)
(0.997633 0.000423229 0)
(0.997598 0.000395852 0)
(0.997549 0.000450508 0)
(0.997482 0.000422698 0)
(0.997416 0.000477992 0)
(0.997352 0.000449578 0)
(0.997304 0.000506508 0)
(0.997262 0.000479125 0)
(0.997231 0.000539231 0)
(0.99719 0.000513697 0)
(0.997143 0.000576877 0)
(0.997079 0.000552441 0)
(0.997013 0.000617855 0)
(0.996939 0.000594144 0)
(0.996875 0.000662163 0)
(0.996813 0.000640237 0)
(0.996761 0.000712238 0)
(0.996703 0.00069337 0)
(0.996646 0.000770224 0)
(0.996575 0.000754876 0)
(0.996502 0.000836857 0)
(0.99642 0.000825472 0)
(0.996342 0.000913482 0)
(0.996263 0.000907527 0)
(0.996191 0.0010035 0)
(0.996117 0.00100512 0)
(0.996045 0.00111118 0)
(0.995967 0.00112229 0)
(0.995887 0.00124016 0)
(0.995802 0.00126232 0)
(0.995718 0.00139355 0)
(0.995636 0.00142833 0)
(0.995557 0.0015745 0)
(0.995485 0.00162326 0)
(0.995413 0.00178546 0)
(0.995347 0.00184876 0)
(0.995279 0.00202693 0)
(0.995216 0.00210413 0)
(1 2.44441e-05 0)
(1 1.25511e-05 0)
(0.999994 4.65513e-05 0)
(0.999974 2.28211e-05 0)
(0.999944 4.76537e-05 0)
(0.999907 1.62113e-05 0)
(0.999866 3.43346e-05 0)
(0.999825 -3.79584e-06 0)
(0.999788 7.9947e-06 0)
(0.999762 -3.53639e-05 0)
(0.999749 -2.68852e-05 0)
(0.999755 -7.00038e-05 0)
(0.999779 -5.77397e-05 0)
(0.999826 -9.22147e-05 0)
(0.999891 -6.84064e-05 0)
(0.999972 -8.75805e-05 0)
(1.00006 -4.85073e-05 0)
(1.00015 -5.21501e-05 0)
(1.00023 -2.25726e-06 0)
(1.00029 7.46799e-07 0)
(1.00032 4.93796e-05 0)
(1.00031 4.57407e-05 0)
(1.00027 8.0667e-05 0)
(1.00019 6.04787e-05 0)
(1.00008 7.57274e-05 0)
(0.999964 3.80553e-05 0)
(0.99985 3.83308e-05 0)
(0.999759 -7.02758e-06 0)
(0.999707 -7.36077e-06 0)
(0.999705 -4.45126e-05 0)
(0.999754 -3.04927e-05 0)
(0.999847 -4.88481e-05 0)
(0.999968 -1.50665e-05 0)
(1.00009 -1.64114e-05 0)
(1.0002 2.90212e-05 0)
(1.00026 3.01412e-05 0)
(1.00026 6.95135e-05 0)
(1.0002 5.63507e-05 0)
(1.00009 7.67258e-05 0)
(0.999946 4.33528e-05 0)
(0.999802 4.69243e-05 0)
(0.999686 3.96418e-06 0)
(0.999627 7.17795e-06 0)
(0.999639 -2.58156e-05 0)
(0.99972 -5.93925e-06 0)
(0.999851 -1.78806e-05 0)
(0.999998 2.05354e-05 0)
(1.00012 2.1479e-05 0)
(1.00019 6.22927e-05 0)
(1.00018 5.60219e-05 0)
(1.00008 8.02677e-05 0)
(0.999928 5.40708e-05 0)
(0.999757 5.90834e-05 0)
(0.999618 2.09741e-05 0)
(0.999546 2.38646e-05 0)
(0.999563 -5.42775e-06 0)
(0.999658 1.4061e-05 0)
(0.9998 4.8628e-06 0)
(0.999945 4.15712e-05 0)
(1.00005 4.1352e-05 0)
(1.00008 7.66295e-05 0)
(1.00002 6.55958e-05 0)
(0.999884 8.36605e-05 0)
(0.999714 5.42429e-05 0)
(0.999559 5.83937e-05 0)
(0.999466 2.4128e-05 0)
(0.999467 3.39544e-05 0)
(0.999557 1.39888e-05 0)
(0.999703 4.20536e-05 0)
(0.99985 3.80937e-05 0)
(0.999945 7.42112e-05 0)
(0.99995 6.84006e-05 0)
(0.999862 9.3063e-05 0)
(0.999708 7.07914e-05 0)
(0.99954 7.92494e-05 0)
(0.999412 4.74011e-05 0)
(0.999367 5.53744e-05 0)
(0.999416 3.28645e-05 0)
(0.999536 5.58478e-05 0)
(0.999679 4.94126e-05 0)
(0.999786 8.27495e-05 0)
(0.999813 7.82477e-05 0)
(0.999743 0.000103783 0)
(0.999603 8.55954e-05 0)
(0.999437 9.60466e-05 0)
(0.99931 6.77776e-05 0)
(0.999261 7.62861e-05 0)
(0.999308 5.52133e-05 0)
(0.999421 7.68183e-05 0)
(0.999554 6.97509e-05 0)
(0.999645 0.000100626 0)
(0.999654 9.47238e-05 0)
(0.999572 0.000118425 0)
(0.999428 9.99026e-05 0)
(0.999276 0.000110984 0)
(0.999171 8.46556e-05 0)
(0.99915 9.62107e-05 0)
(0.999212 7.78005e-05 0)
(0.999325 0.000101942 0)
(0.999432 9.49272e-05 0)
(0.999484 0.000125371 0)
(0.999449 0.000116548 0)
(0.999341 0.000138754 0)
(0.999198 0.000118249 0)
(0.999076 0.00013105 0)
(0.999018 0.000106658 0)
(0.999043 0.000123203 0)
(0.999127 0.000107784 0)
(0.999228 0.000135107 0)
(0.999291 0.000127121 0)
(0.999284 0.000155967 0)
(0.999201 0.000142815 0)
(0.999074 0.000162615 0)
(0.998951 0.000140435 0)
(0.998878 0.000155402 0)
(0.998875 0.000134513 0)
(0.998934 0.000156238 0)
(0.999017 0.000144507 0)
(0.999075 0.000173642 0)
(0.999075 0.000164616 0)
(0.999008 0.000190643 0)
(0.998899 0.00017466 0)
(0.998787 0.000192951 0)
(0.998716 0.000172348 0)
(0.998703 0.0001908 0)
(0.998746 0.000175297 0)
(0.998808 0.000200963 0)
(0.998854 0.000191902 0)
(0.998848 0.000220089 0)
(0.998788 0.000209168 0)
(0.998688 0.000231948 0)
(0.998589 0.000215152 0)
(0.99852 0.000234122 0)
(0.998504 0.000217577 0)
(0.998528 0.000240456 0)
(0.998573 0.000229755 0)
(0.998598 0.000257685 0)
(0.998585 0.000249148 0)
(0.998525 0.00027575 0)
(0.99844 0.000263273 0)
(0.998354 0.00028566 0)
(0.998298 0.000270555 0)
(0.998279 0.000293534 0)
(0.998293 0.0002815 0)
(0.998315 0.000309131 0)
(0.998321 0.000300671 0)
(0.998292 0.000330099 0)
(0.998231 0.000320437 0)
(0.998151 0.000347508 0)
(0.998077 0.000334871 0)
(0.998026 0.000361022 0)
(0.998005 0.000349027 0)
(0.998005 0.000378358 0)
(0.998008 0.00036953 0)
(0.997996 0.000402087 0)
(0.997957 0.000394092 0)
(0.997896 0.000426598 0)
(0.997824 0.000416771 0)
(0.997761 0.000448489 0)
(0.997713 0.000438157 0)
(0.997687 0.000471774 0)
(0.99767 0.00046358 0)
(0.997654 0.000500555 0)
(0.99762 0.000494214 0)
(0.997572 0.000532906 0)
(0.997506 0.000526368 0)
(0.99744 0.000565407 0)
(0.997377 0.000558634 0)
(0.997331 0.000599276 0)
(0.997293 0.000594201 0)
(0.997265 0.000638159 0)
(0.997227 0.000635631 0)
(0.997183 0.000682675 0)
(0.997121 0.000681784 0)