/*--------------------------------*- C++ -*----------------------------------*\
| =========                 |                                                 |
| \\      /  F ield         | OpenFOAM: The Open Source CFD Toolbox           |
|  \\    /   O peration     | Version:  v1912                                 |
|   \\  /    A nd           | Website:  www.openfoam.com                      |
|    \\/     M anipulation  |                                                 |
\*---------------------------------------------------------------------------*/
FoamFile
{
    version     2.0;
    format      ascii;
    class       volScalarField;
    location    "0.8";
    object      p;
}
// * * * * * * * * * * * * * * * * * * * * * * * * * * * * * * * * * * * * * //

dimensions      [0 2 -2 0 0 0 0];


internalField   nonuniform List<scalar> 
12000
(
-4.57665e-12
-1.03403e-05
-1.70315e-05
-2.00989e-05
-1.96471e-05
-1.64142e-05
-1.09632e-05
-4.15134e-06
3.6002e-06
1.16192e-05
1.96253e-05
2.70826e-05
3.37399e-05
3.90987e-05
4.30355e-05
4.53223e-05
4.61308e-05
4.56324e-05
4.42296e-05
4.22154e-05
3.98853e-05
3.73047e-05
3.44342e-05
3.10702e-05
2.70115e-05
2.21253e-05
1.64693e-05
1.02837e-05
4.06006e-06
-1.58169e-06
-6.0557e-06
-8.75604e-06
-9.33377e-06
-7.53323e-06
-3.43578e-06
2.8436e-06
1.09446e-05
2.06052e-05
3.1438e-05
4.32573e-05
5.57893e-05
6.89689e-05
8.2547e-05
9.64322e-05
0.000110243
0.000123704
0.000136334
0.000147848
0.000157814
0.000166113
0.000172533
0.000177251
0.000180365
0.000182334
0.000183537
0.000184599
0.000185923
0.000188081
0.000191361
0.000196196
0.000202695
0.000211103
0.000221327
0.000233406
0.000247066
0.000262179
0.000278304
0.000295173
0.000312227
0.000329146
0.000345359
0.000360616
0.000374519
0.000387041
0.000398039
0.000407745
0.00041626
0.000424025
0.000431304
0.000438647
0.000446362
0.000454978
0.000464718
0.00047596
0.000488731
0.000503187
0.000519127
0.000536486
0.000554869
0.00057406
0.000593562
0.000613115
0.000632241
0.000650768
0.000668362
0.000685042
0.000700685
0.000715523
0.000729626
0.000743389
0.000756999
0.000770914
0.000785325
0.000800639
0.00081694
0.000834495
0.000853221
0.000873209
0.000894204
0.00091615
0.000938674
0.00096165
0.000984678
0.00100766
0.00103028
0.00105255
0.00107427
0.00109562
0.00111655
0.00113737
0.00115811
0.00117913
0.0012005
0.00122257
0.00124532
0.00126903
0.00129359
0.00131915
0.00134551
0.00137272
0.0014005
0.00142887
0.00145751
0.00148648
0.00151549
0.00154466
0.00157378
0.00160305
0.00163235
0.00166196
0.00169178
0.00172214
0.00175295
0.00178454
0.00181677
0.00184994
0.00188385
0.00191876
0.00195439
0.00199097
0.00202819
0.00206625
0.00210484
0.00214418
0.00218396
0.00222448
0.00226544
0.0023072
0.00234951
0.00239274
0.00243667
0.00248168
0.00252755
0.00257466
0.00262276
0.00267224
0.00272279
0.00277485
0.00282809
0.00288297
0.00293916
0.00299714
0.00305658
0.003118
0.00318107
0.00324635
0.00331354
0.00338324
0.00345518
0.00353002
0.00360752
0.00368844
0.00377256
0.00386075
0.00395289
0.00404997
0.00415202
0.00426027
0.00437496
0.00449769
0.00462908
0.00477129
0.00492552
0.00509469
0.00528072
0.00548734
0.00571689
0.0059732
0.00625765
0.00657189
2.7406e-06
-1.02581e-05
-1.78534e-05
-2.11467e-05
-2.02753e-05
-1.68206e-05
-1.10119e-05
-4.17959e-06
3.71311e-06
1.16127e-05
1.97128e-05
2.70567e-05
3.38147e-05
3.90842e-05
4.3143e-05
4.53469e-05
4.62934e-05
4.57164e-05
4.44472e-05
4.23415e-05
4.01199e-05
3.74242e-05
3.46324e-05
3.11366e-05
2.71385e-05
2.21157e-05
1.64921e-05
1.0164e-05
3.97463e-06
-1.83455e-06
-6.28669e-06
-9.14685e-06
-9.68379e-06
-8.01024e-06
-3.83399e-06
2.36474e-06
1.05744e-05
2.01923e-05
3.11568e-05
4.29644e-05
5.56447e-05
6.88104e-05
8.25265e-05
9.63784e-05
0.000110288
0.000123699
0.000136419
0.000147879
0.000157926
0.00016615
0.000172633
0.000177253
0.000180395
0.000182247
0.000183439
0.000184357
0.000185649
0.000187665
0.000190941
0.000195679
0.000202224
0.000210585
0.000220901
0.000232987
0.000246776
0.000261912
0.000278162
0.000295034
0.000312186
0.000329072
0.000345348
0.000360555
0.000374506
0.000386957
0.00039798
0.000407586
0.000416088
0.000423721
0.000430967
0.000438176
0.000445872
0.000454389
0.000464152
0.00047534
0.000488177
0.000502617
0.000518648
0.000536009
0.00055449
0.000573681
0.000593266
0.000612794
0.000631973
0.000650439
0.000668056
0.000684647
0.000700288
0.000715013
0.000729095
0.000742732
0.000756318
0.000770118
0.000784527
0.000799751
0.000816079
0.000833573
0.00085235
0.000872298
0.00089336
0.000915271
0.000937859
0.000960788
0.000983865
0.00100678
0.00102942
0.00105158
0.0010733
0.00109453
0.00111545
0.00113613
0.00115685
0.00117774
0.0011991
0.00122104
0.00124379
0.00126739
0.00129196
0.00131743
0.0013438
0.00137092
0.00139872
0.00142697
0.00145562
0.00148446
0.00151346
0.00154247
0.00157156
0.00160066
0.00162991
0.00165931
0.00168908
0.00171922
0.00174997
0.00178133
0.0018135
0.00184643
0.00188027
0.00191492
0.00195047
0.00198677
0.00202389
0.00206165
0.00210013
0.00213917
0.00217886
0.00221907
0.00225995
0.00230139
0.00234358
0.00238645
0.00243021
0.00247481
0.00252046
0.00256711
0.00261497
0.00266396
0.00271428
0.00276585
0.00281886
0.00287322
0.00292914
0.00298653
0.00304562
0.00310634
0.00316894
0.00323339
0.00329995
0.00336865
0.00343979
0.00351343
0.00358994
0.0036694
0.00375226
0.00383868
0.00392918
0.00402402
0.00412382
0.00422898
0.00434029
0.0044583
0.0045839
0.00471769
0.00486044
0.0050124
0.00517375
0.00534386
0.00552188
0.00570601
0.00589444
0.00608488
5.84053e-06
-1.02974e-05
-1.90754e-05
-2.26083e-05
-2.12616e-05
-1.741e-05
-1.11485e-05
-4.23359e-06
3.78942e-06
1.1595e-05
1.97755e-05
2.70474e-05
3.39274e-05
3.91771e-05
4.33859e-05
4.55896e-05
4.66907e-05
4.61005e-05
4.49543e-05
4.27939e-05
4.06397e-05
3.78333e-05
3.50523e-05
3.139e-05
2.73592e-05
2.21223e-05
1.6426e-05
9.86234e-06
3.57803e-06
-2.48082e-06
-7.02297e-06
-1.00908e-05
-1.0658e-05
-9.10705e-06
-4.87677e-06
1.29342e-06
9.64995e-06
1.93159e-05
3.04924e-05
4.23963e-05
5.53223e-05
6.86048e-05
8.2564e-05
9.65104e-05
0.000110613
0.000124069
0.000136925
0.000148364
0.000158469
0.000166594
0.000173043
0.000177483
0.000180523
0.000182141
0.000183192
0.000183832
0.000184963
0.000186727
0.000189914
0.000194514
0.000201088
0.00020944
0.000219912
0.000232101
0.000246136
0.000261432
0.000277949
0.000294968
0.00031233
0.000329273
0.000345656
0.000360819
0.000374783
0.000387108
0.000398052
0.000407446
0.000415803
0.000423173
0.000430252
0.000437212
0.000444794
0.000453152
0.000462903
0.000474045
0.000486985
0.000501487
0.000517706
0.000535184
0.000553884
0.000573188
0.000592949
0.000612518
0.00063178
0.000650189
0.000667791
0.000684232
0.000699775
0.000714283
0.000728222
0.000741622
0.000755076
0.000768681
0.000783018
0.000798128
0.000814469
0.000831932
0.000850801
0.000870778
0.000891972
0.000913932
0.000936646
0.000959593
0.000982741
0.0010056
0.00102824
0.00105028
0.00107193
0.00109297
0.00111378
0.00113425
0.00115485
0.00117555
0.00119681
0.0012186
0.00124131
0.0012648
0.00128937
0.00131477
0.00134117
0.00136823
0.00139605
0.00142424
0.00145288
0.0014816
0.00151054
0.00153938
0.00156836
0.00159723
0.00162633
0.00165548
0.00168507
0.00171496
0.00174553
0.00177664
0.00180864
0.00184133
0.00187502
0.00190943
0.00194482
0.00198087
0.00201781
0.00205531
0.00209358
0.0021323
0.00217173
0.00221158
0.00225214
0.00229315
0.00233497
0.00237736
0.0024207
0.00246477
0.00250996
0.00255603
0.00260338
0.00265176
0.00270153
0.00275243
0.00280484
0.00285846
0.00291367
0.00297018
0.00302841
0.00308807
0.0031496
0.00321274
0.00327798
0.00334508
0.00341457
0.00348625
0.00356069
0.00363771
0.00371794
0.00380124
0.00388827
0.00397894
0.00407393
0.00417312
0.00427716
0.00438578
0.00449941
0.00461748
0.00474007
0.00486616
0.00499539
0.00512625
0.00525793
0.00538854
0.0055171
0.00564179
5.47496e-06
-1.05541e-05
-1.94117e-05
-2.28988e-05
-2.1535e-05
-1.75815e-05
-1.13084e-05
-4.33359e-06
3.65521e-06
1.15042e-05
1.96809e-05
2.70669e-05
3.40314e-05
3.94613e-05
4.37904e-05
4.61786e-05
4.73766e-05
4.69246e-05
4.58063e-05
4.36964e-05
4.14744e-05
3.8619e-05
3.56748e-05
3.18759e-05
2.75828e-05
2.21198e-05
1.60905e-05
9.2643e-06
2.63387e-06
-3.66611e-06
-8.50103e-06
-1.17315e-05
-1.24771e-05
-1.09522e-05
-6.74209e-06
-4.40309e-07
8.03947e-06
1.79736e-05
2.93847e-05
4.16429e-05
5.48626e-05
6.8532e-05
8.27752e-05
9.70605e-05
0.000111372
0.000125059
0.000138002
0.000149524
0.000159553
0.000167593
0.0001738
0.000178004
0.000180667
0.000181948
0.000182561
0.000182846
0.000183573
0.000185082
0.000188014
0.000192533
0.000199066
0.000207561
0.000218205
0.000230727
0.000245088
0.000260823
0.000277706
0.000295127
0.00031275
0.00032993
0.000346379
0.000361581
0.000375416
0.000387593
0.000398243
0.000407344
0.000415291
0.000422305
0.000428963
0.000435628
0.000442911
0.000451123
0.000460762
0.000471961
0.000484987
0.000499728
0.000516197
0.000534033
0.000553028
0.00057266
0.000592627
0.000612383
0.000631678
0.000650094
0.000667546
0.000683822
0.000699064
0.000713293
0.000726858
0.000739963
0.00075308
0.000766469
0.000780591
0.000795626
0.000811912
0.000829458
0.000848407
0.000868575
0.00088992
0.000912095
0.00093494
0.000958033
0.000981207
0.00100409
0.00102662
0.00104855
0.00106997
0.00109081
0.00111131
0.00113154
0.00115184
0.00117233
0.00119335
0.001215
0.00123756
0.00126101
0.00128551
0.00131093
0.00133732
0.00136442
0.00139222
0.00142041
0.00144896
0.00147761
0.00150636
0.00153504
0.00156374
0.00159237
0.00162113
0.00165
0.00167923
0.00170882
0.00173905
0.00176989
0.00180157
0.00183403
0.00186742
0.00190161
0.0019367
0.00197252
0.00200914
0.00204635
0.00208423
0.00212259
0.00216154
0.00220094
0.00224093
0.00228141
0.00232257
0.00236435
0.00240697
0.00245037
0.00249478
0.00254012
0.00258663
0.00263421
0.00268306
0.00273307
0.00278444
0.00283702
0.00289102
0.0029463
0.00300307
0.00306122
0.00312098
0.00318227
0.00324534
0.00331015
0.00337698
0.0034458
0.00351691
0.0035903
0.00366629
0.00374482
0.0038262
0.00391033
0.00399742
0.00408724
0.00417985
0.00427484
0.00437207
0.00447092
0.00457104
0.00467159
0.00477206
0.00487147
0.00496922
0.00506434
0.00515643
0.0052451
1.45631e-06
-1.13437e-05
-1.8669e-05
-2.16765e-05
-2.06204e-05
-1.70644e-05
-1.12685e-05
-4.5306e-06
3.25307e-06
1.1146e-05
1.93625e-05
2.69826e-05
3.41326e-05
3.98856e-05
4.44277e-05
4.71105e-05
4.84546e-05
4.8195e-05
4.71012e-05
4.50473e-05
4.27053e-05
3.97537e-05
3.65361e-05
3.24846e-05
2.7768e-05
2.19203e-05
1.53776e-05
8.12545e-06
9.99998e-07
-5.65938e-06
-1.08749e-05
-1.43159e-05
-1.5263e-05
-1.37388e-05
-9.50627e-06
-2.9848e-06
5.73536e-06
1.60807e-05
2.79032e-05
4.07041e-05
5.44123e-05
6.86458e-05
8.33524e-05
9.8111e-05
0.000112752
0.000126755
0.000139821
0.000151418
0.000161301
0.000169127
0.000174911
0.000178655
0.000180709
0.0001814
0.000181353
0.000181089
0.000181286
0.00018243
0.000185063
0.000189497
0.000196051
0.000204794
0.000215784
0.000228832
0.000243748
0.000260127
0.000277584
0.000295558
0.000313573
0.000331071
0.000347632
0.00036284
0.000376467
0.000388342
0.000398511
0.000407092
0.000414411
0.000420848
0.00042693
0.000433148
0.000440047
0.000448062
0.000457605
0.000468914
0.000482153
0.000497281
0.000514176
0.000532528
0.000551985
0.000572068
0.000592343
0.000612336
0.000631685
0.000650056
0.000667278
0.000683245
0.000698038
0.0007118
0.00072484
0.000737483
0.000750155
0.000763223
0.000777086
0.000792023
0.000808287
0.000825964
0.000845095
0.000865547
0.000887162
0.000909638
0.000932695
0.000955973
0.000979199
0.00100208
0.00102445
0.00104617
0.00106727
0.00108777
0.00110785
0.0011277
0.0011476
0.00116776
0.00118848
0.00120993
0.00123232
0.00125571
0.00128018
0.00130564
0.00133205
0.00135921
0.001387
0.00141519
0.00144364
0.00147215
0.00150066
0.00152906
0.00155739
0.00158564
0.00161395
0.00164239
0.00167114
0.00170031
0.0017301
0.00176056
0.00179185
0.00182398
0.00185702
0.0018909
0.00192564
0.00196113
0.00199734
0.00203414
0.00207151
0.00210934
0.00214766
0.0021864
0.00222563
0.00226534
0.00230563
0.00234654
0.0023882
0.00243065
0.00247402
0.00251834
0.00256372
0.00261017
0.00265778
0.00270652
0.00275646
0.00280756
0.00285989
0.00291339
0.00296816
0.00302416
0.0030815
0.00314017
0.00320029
0.00326187
0.00332507
0.00338989
0.00345646
0.00352478
0.00359495
0.0036669
0.00374067
0.0038161
0.00389312
0.00397145
0.00405093
0.00413115
0.00421183
0.00429246
0.00437266
0.00445184
0.00452956
0.00460521
0.00467838
0.00474856
0.0048157
0.00487956
-4.61459e-06
-1.29909e-05
-1.78127e-05
-1.97399e-05
-1.87632e-05
-1.57793e-05
-1.08041e-05
-4.67282e-06
2.6771e-06
1.05004e-05
1.88088e-05
2.67635e-05
3.42641e-05
4.04719e-05
4.53722e-05
4.84332e-05
5.00159e-05
4.99741e-05
4.89352e-05
4.69001e-05
4.44056e-05
4.12502e-05
3.76515e-05
3.31559e-05
2.7843e-05
2.13942e-05
1.41681e-05
6.28599e-06
-1.48487e-06
-8.65376e-06
-1.43262e-05
-1.80464e-05
-1.91787e-05
-1.76338e-05
-1.32555e-05
-6.38821e-06
2.7675e-06
1.37047e-05
2.61564e-05
3.96824e-05
5.40956e-05
6.90612e-05
8.44079e-05
9.97722e-05
0.000114873
0.000129237
0.000142462
0.000154062
0.000163712
0.000171132
0.000176299
0.000179305
0.000180493
0.000180318
0.000179397
0.000178371
0.000177907
0.000178592
0.000180938
0.000185332
0.000192039
0.000201179
0.000212724
0.000226503
0.000242212
0.000259436
0.000277663
0.000296341
0.000314886
0.000332754
0.000349445
0.000364578
0.000377878
0.000389248
0.000398722
0.000406524
0.000412996
0.000418633
0.000423967
0.000429587
0.000436033
0.000443819
0.000453328
0.000464839
0.000478452
0.000494131
0.000511654
0.000530689
0.000550777
0.000571428
0.000592118
0.000612377
0.000631778
0.00065002
0.0006669
0.000682382
0.000696549
0.00070964
0.000721979
0.000733985
0.000746087
0.000758731
0.000772304
0.000787136
0.000803439
0.000821322
0.000840756
0.000861603
0.000883616
0.000906481
0.000929839
0.000953331
0.000976623
0.000999443
0.0010216
0.00104299
0.00106363
0.00108363
0.00110315
0.00112246
0.00114183
0.00116155
0.00118189
0.00120309
0.00122531
0.00124864
0.0012731
0.00129863
0.00132511
0.00135236
0.00138017
0.00140832
0.00143664
0.00146495
0.00149313
0.00152113
0.00154897
0.00157668
0.00160439
0.00163222
0.00166037
0.00168897
0.00171819
0.00174816
0.00177897
0.00181067
0.00184328
0.00187677
0.00191109
0.00194613
0.00198184
0.00201808
0.0020548
0.00209193
0.00212943
0.00216728
0.00220552
0.00224419
0.00228336
0.0023231
0.00236353
0.00240472
0.00244676
0.00248972
0.00253367
0.00257863
0.00262464
0.00267168
0.00271979
0.00276892
0.00281908
0.00287025
0.00292243
0.00297562
0.00302985
0.00308511
0.00314146
0.0031989
0.0032575
0.00331723
0.00337813
0.00344016
0.00350328
0.0035674
0.00363243
0.00369817
0.00376448
0.00383109
0.00389776
0.00396417
0.00403003
0.00409496
0.00415862
0.00422059
0.00428055
0.0043381
0.00439301
0.0044451
0.00449429
0.00454042
-1.11885e-05
-1.5685e-05
-1.79294e-05
-1.84056e-05
-1.69853e-05
-1.42073e-05
-9.8481e-06
-4.34085e-06
2.51482e-06
1.01383e-05
1.84796e-05
2.6721e-05
3.46319e-05
4.13513e-05
4.67121e-05
5.02209e-05
5.2126e-05
5.23259e-05
5.13666e-05
4.92925e-05
4.65797e-05
4.30758e-05
3.8943e-05
3.38025e-05
2.7707e-05
2.04259e-05
1.23124e-05
3.58176e-06
-4.99583e-06
-1.28391e-05
-1.90523e-05
-2.31012e-05
-2.43692e-05
-2.27231e-05
-1.80578e-05
-1.06902e-05
-8.87112e-07
1.08481e-05
2.41705e-05
3.8636e-05
5.39852e-05
6.98735e-05
8.60544e-05
0.000102161
0.000117837
0.000132595
0.000145967
0.000157468
0.000166731
0.000173523
0.000177822
0.000179804
0.000179858
0.000178544
0.000176525
0.000174538
0.000173289
0.000173443
0.000175521
0.000179949
0.000186968
0.000196693
0.000209031
0.000223774
0.000240521
0.000258803
0.000278011
0.000297545
0.000316736
0.000335009
0.000351806
0.000366752
0.000379565
0.000390203
0.000398739
0.000405493
0.000410876
0.000415475
0.000419877
0.000424758
0.000430694
0.000438252
0.00044781
0.000459654
0.000473826
0.00049025
0.000508612
0.000528517
0.000549412
0.000570758
0.000591949
0.000612488
0.000631901
0.0006499
0.000666287
0.000681084
0.000694419
0.000706616
0.000718055
0.000729235
0.000740633
0.000752758
0.000766015
0.000780762
0.000797186
0.000815382
0.000835257
0.000856631
0.000879177
0.000902536
0.000926276
0.000950011
0.000973361
0.000996056
0.00101789
0.00103881
0.00105884
0.00107813
0.00109692
0.0011155
0.0011342
0.00115336
0.00117325
0.00119414
0.00121618
0.00123947
0.00126398
0.00128962
0.00131623
0.00134358
0.00137142
0.00139953
0.00142767
0.00145567
0.00148342
0.00151087
0.00153804
0.00156503
0.00159196
0.00161902
0.00164639
0.00167425
0.00170279
0.00173213
0.00176237
0.00179355
0.00182566
0.00185865
0.00189245
0.00192694
0.00196201
0.00199755
0.00203345
0.00206965
0.00210612
0.00214283
0.00217983
0.00221716
0.00225492
0.0022932
0.00233209
0.00237168
0.00241208
0.00245333
0.00249549
0.00253858
0.00258261
0.00262755
0.00267338
0.00272007
0.00276757
0.00281584
0.00286486
0.00291459
0.00296503
0.00301617
0.003068
0.00312051
0.0031737
0.00322754
0.003282
0.00333701
0.0033925
0.00344835
0.00350443
0.00356057
0.00361658
0.00367225
0.00372735
0.00378162
0.0038348
0.0038866
0.00393676
0.003985
0.00403108
0.00407483
0.00411615
0.00415494
0.00419112
0.00422459
-1.75021e-05
-1.91296e-05
-1.92851e-05
-1.83603e-05
-1.61665e-05
-1.30923e-05
-8.80089e-06
-3.52389e-06
3.07497e-06
1.0579e-05
1.89682e-05
2.74429e-05
3.56819e-05
4.28095e-05
4.8638e-05
5.25694e-05
5.47952e-05
5.52011e-05
5.42891e-05
5.21171e-05
4.91163e-05
4.51396e-05
4.03258e-05
3.4339e-05
2.72497e-05
1.88929e-05
9.65635e-06
-1.59962e-07
-9.73843e-06
-1.84174e-05
-2.52573e-05
-2.96675e-05
-3.10239e-05
-2.91772e-05
-2.40527e-05
-1.59816e-05
-5.28448e-06
7.4998e-06
2.1962e-05
3.76221e-05
5.41599e-05
7.11956e-05
8.84186e-05
0.000105417
0.000121763
0.000136931
0.000150399
0.000161662
0.000170346
0.000176251
0.000179394
0.000180043
0.000178665
0.000175922
0.000172561
0.000169416
0.000167258
0.000166823
0.000168663
0.000173231
0.000180741
0.000191278
0.000204673
0.000220647
0.000238701
0.000258286
0.000278692
0.000299241
0.000319175
0.000337864
0.000354704
0.000369321
0.000381445
0.000391096
0.000398422
0.000403844
0.000407863
0.000411173
0.000414449
0.000418459
0.000423837
0.000431194
0.000440908
0.000453246
0.000468187
0.000485579
0.00050501
0.000525998
0.000547889
0.000570061
0.000591826
0.000612637
0.000631989
0.000649602
0.000665306
0.00067919
0.000691451
0.000702504
0.000712811
0.000722966
0.000733515
0.000745036
0.000757963
0.000772668
0.000789314
0.000807957
0.000828433
0.000850492
0.000873721
0.00089769
0.000921894
0.000945897
0.000969277
0.000991758
0.00101314
0.0010334
0.00105261
0.00107099
0.00108882
0.00110649
0.00112435
0.00114281
0.00116217
0.00118272
0.0012046
0.00122787
0.00125248
0.00127829
0.00130507
0.00133256
0.00136045
0.00138847
0.00141637
0.00144396
0.00147113
0.00149785
0.00152417
0.00155022
0.00157617
0.00160224
0.00162865
0.00165561
0.00168331
0.0017119
0.00174146
0.00177201
0.00180353
0.00183594
0.00186912
0.00190294
0.00193723
0.00197189
0.00200678
0.00204183
0.002077
0.0021123
0.00214777
0.00218347
0.0022195
0.00225597
0.00229299
0.00233066
0.00236907
0.00240827
0.00244829
0.00248915
0.00253081
0.00257325
0.00261639
0.00266017
0.00270454
0.00274941
0.00279474
0.00284047
0.00288657
0.00293301
0.00297976
0.0030268
0.00307411
0.00312165
0.00316936
0.00321719
0.00326504
0.00331281
0.00336036
0.00340755
0.0034542
0.00350013
0.00354513
0.00358901
0.00363155
0.00367255
0.00371181
0.00374918
0.00378456
0.00381787
0.00384904
0.003878
0.00390469
0.00392906
-2.34168e-05
-2.32088e-05
-2.18482e-05
-1.97039e-05
-1.65897e-05
-1.28522e-05
-8.12687e-06
-2.57532e-06
4.20371e-06
1.18758e-05
2.04766e-05
2.92421e-05
3.78315e-05
4.53428e-05
5.15126e-05
5.57346e-05
5.81742e-05
5.86854e-05
5.77424e-05
5.53657e-05
5.19552e-05
4.7354e-05
4.16948e-05
3.4657e-05
2.63458e-05
1.66513e-05
6.02623e-06
-5.13959e-06
-1.59417e-05
-2.56291e-05
-3.319e-05
-3.79828e-05
-3.93633e-05
-3.7184e-05
-3.13969e-05
-2.23761e-05
-1.05005e-05
3.62649e-06
1.95344e-05
3.66905e-05
5.47115e-05
7.3156e-05
9.16432e-05
0.000109687
0.000126789
0.00014236
0.000155833
0.000166686
0.000174551
0.000179271
0.000180937
0.000179912
0.000176765
0.000172276
0.000167305
0.000162793
0.000159599
0.00015853
0.000160184
0.000165024
0.000173235
0.000184844
0.000199591
0.000217103
0.000236771
0.000257937
0.000279775
0.0003015
0.000322258
0.000341354
0.000358143
0.000372253
0.000383449
0.000391829
0.000397634
0.000401403
0.000403752
0.000405504
0.00040745
0.000410462
0.000415243
0.000422447
0.000432447
0.000445469
0.000461411
0.000480028
0.000500792
0.000523106
0.000546195
0.000569329
0.000591728
0.000612788
0.000631975
0.000649028
0.000663824
0.000676528
0.000687428
0.00069705
0.000705965
0.000714879
0.00072443
0.000735267
0.00074786
0.000762586
0.000779575
0.000798823
0.000820081
0.000843009
0.000867091
0.000891804
0.000916553
0.000940841
0.000964204
0.000986359
0.00100712
0.00102651
0.00104465
0.00106186
0.0010785
0.00109502
0.00111186
0.00112949
0.00114825
0.00116843
0.00119015
0.00121346
0.00123824
0.00126429
0.0012913
0.00131896
0.0013469
0.00137479
0.00140235
0.0014294
0.00145581
0.0014816
0.00150684
0.00153172
0.00155646
0.00158131
0.00160655
0.00163243
0.00165915
0.00168685
0.00171561
0.00174545
0.00177628
0.00180801
0.00184046
0.00187346
0.00190683
0.00194042
0.00197409
0.00200775
0.00204137
0.00207496
0.00210857
0.00214231
0.00217628
0.00221062
0.00224543
0.00228085
0.00231693
0.00235375
0.0023913
0.00242958
0.00246854
0.00250811
0.00254819
0.0025887
0.00262953
0.00267061
0.00271184
0.00275318
0.00279456
0.00283596
0.00287734
0.00291869
0.00295998
0.00300118
0.00304224
0.00308311
0.00312372
0.00316396
0.00320371
0.00324286
0.00328124
0.00331871
0.0033551
0.00339025
0.00342401
0.00345624
0.00348684
0.00351576
0.00354294
0.00356832
0.00359187
0.00361352
0.00363323
0.003651
-2.91566e-05
-2.78599e-05
-2.54439e-05
-2.22915e-05
-1.82302e-05
-1.36146e-05
-8.0923e-06
-1.83397e-06
5.56991e-06
1.38042e-05
2.29287e-05
3.21908e-05
4.12477e-05
4.91619e-05
5.56437e-05
6.00709e-05
6.25909e-05
6.30393e-05
6.18812e-05
5.91147e-05
5.51178e-05
4.9701e-05
4.29888e-05
3.46663e-05
2.48698e-05
1.35456e-05
1.23737e-06
-1.1562e-05
-2.38305e-05
-3.47094e-05
-4.30931e-05
-4.82835e-05
-4.96121e-05
-4.6944e-05
-4.0269e-05
-3.00211e-05
-1.66533e-05
-8.39722e-07
1.68771e-05
3.58867e-05
5.5727e-05
7.58743e-05
9.58606e-05
0.00011511
0.000133038
0.000148987
0.000162349
0.000172588
0.000179358
0.000182567
0.000182392
0.000179304
0.000174003
0.000167413
0.000160533
0.000154429
0.000150068
0.000148338
0.000149876
0.000155148
0.000164296
0.000177266
0.0001937
0.000213105
0.000234737
0.000257796
0.000281316
0.000304385
0.000326043
0.000345521
0.000362137
0.000375531
0.000385526
0.000392307
0.000396234
0.000397982
0.00039832
0.000398224
0.000398626
0.000400511
0.000404665
0.000411778
0.00042221
0.000436131
0.000453342
0.00047348
0.000495875
0.000519786
0.000544289
0.000568527
0.000591615
0.000612887
0.000631785
0.000648075
0.000661694
0.000672904
0.000682112
0.00068998
0.000697219
0.000704663
0.000713058
0.000723131
0.00073539
0.000750211
0.000767678
0.000787711
0.000809958
0.000833964
0.000859086
0.000884686
0.000910064
0.00093465
0.000957933
0.000979625
0.000999565
0.00101783
0.00103464
0.00105039
0.00106555
0.00108069
0.00109633
0.00111299
0.00113106
0.00115083
0.00117242
0.00119581
0.00122083
0.0012472
0.00127451
0.00130238
0.00133035
0.00135806
0.00138518
0.00141153
0.00143699
0.00146162
0.00148553
0.00150898
0.00153224
0.00155564
0.00157949
0.00160409
0.00162965
0.00165633
0.00168418
0.0017132
0.00174325
0.00177419
0.0018058
0.00183787
0.00187016
0.00190249
0.00193471
0.00196672
0.0019985
0.00203008
0.00206153
0.00209298
0.00212456
0.00215643
0.00218872
0.00222156
0.00225502
0.00228916
0.00232395
0.00235938
0.00239535
0.00243178
0.00246853
0.00250549
0.00254253
0.00257956
0.00261646
0.0026532
0.0026897
0.00272595
0.00276193
0.00279762
0.00283302
0.00286812
0.00290288
0.00293727
0.00297122
0.00300465
0.00303747
0.00306957
0.00310081
0.00313108
0.00316024
0.00318818
0.0032148
0.00324005
0.00326388
0.00328624
0.0033071
0.00332642
0.00334416
0.00336031
0.00337482
0.00338771
-3.50458e-05
-3.31095e-05
-2.99301e-05
-2.59161e-05
-2.09095e-05
-1.5299e-05
-8.7509e-06
-1.47401e-06
6.9174e-06
1.60807e-05
2.60664e-05
3.61014e-05
4.58295e-05
5.42818e-05
6.11434e-05
6.57627e-05
6.82702e-05
6.84999e-05
6.69198e-05
6.35247e-05
5.86869e-05
5.22002e-05
4.41751e-05
3.42947e-05
2.27225e-05
9.46713e-06
-4.83077e-06
-1.95564e-05
-3.35475e-05
-4.58126e-05
-5.51399e-05
-6.07565e-05
-6.19696e-05
-5.86625e-05
-5.08743e-05
-3.91089e-05
-2.38981e-05
-6.00664e-06
1.39267e-05
3.5192e-05
5.72253e-05
7.94006e-05
0.000101143
0.00012177
0.000140601
0.000156904
0.000170028
0.000179436
0.000184818
0.00018615
0.000183714
0.000178124
0.00017024
0.000161156
0.000152034
0.000144097
0.000138431
0.00013601
0.000137509
0.000143384
0.000153723
0.000168385
0.000186886
0.000208585
0.000232567
0.000257863
0.000283338
0.000307933
0.000330566
0.000350394
0.000366703
0.000379152
0.000387631
0.000392438
0.000394077
0.000393398
0.000391351
0.000389094
0.000387717
0.000388341
0.000391834
0.000398924
0.000409947
0.000425004
0.000443783
0.000465772
0.000490127
0.000515928
0.000542078
0.000567572
0.000591407
0.000612848
0.000631318
0.000646614
0.000658754
0.000668121
0.000675272
0.000681035
0.000686284
0.000692008
0.000699073
0.000708295
0.000720217
0.000735209
0.000753298
0.000774312
0.000797773
0.00082308
0.000849442
0.000876079
0.000902173
0.000927066
0.0009502
0.000971279
0.00099018
0.00100706
0.00102223
0.00103622
0.00104961
0.0010631
0.00107732
0.00109285
0.00111013
0.00112947
0.00115094
0.00117447
0.0011998
0.00122656
0.00125424
0.00128234
0.00131034
0.00133781
0.00136438
0.00138986
0.00141417
0.00143738
0.00145969
0.00148143
0.00150293
0.00152461
0.00154684
0.00156995
0.00159418
0.0016197
0.00164653
0.00167461
0.0017038
0.00173386
0.00176453
0.00179552
0.00182657
0.00185746
0.00188801
0.00191813
0.0019478
0.00197707
0.00200604
0.00203488
0.00206376
0.00209286
0.00212233
0.00215233
0.00218291
0.00221413
0.00224595
0.00227832
0.00231113
0.00234424
0.00237751
0.00241079
0.00244392
0.00247681
0.00250934
0.00254145
0.00257311
0.0026043
0.00263502
0.00266529
0.00269511
0.0027245
0.00275346
0.00278195
0.00280994
0.00283736
0.00286413
0.00289016
0.00291534
0.00293958
0.00296279
0.00298489
0.00300583
0.00302558
0.00304408
0.00306131
0.00307723
0.00309183
0.00310507
0.00311696
0.00312749
0.00313666
-4.13123e-05
-3.89982e-05
-3.52236e-05
-3.04262e-05
-2.44677e-05
-1.77774e-05
-1.00498e-05
-1.53753e-06
8.10705e-06
1.84923e-05
2.96273e-05
4.07026e-05
5.13302e-05
6.0503e-05
6.78694e-05
7.27436e-05
7.52405e-05
7.51751e-05
7.30157e-05
6.8772e-05
6.2827e-05
5.49783e-05
4.53327e-05
3.35848e-05
1.99262e-05
4.43179e-06
-1.21631e-05
-2.91077e-05
-4.50901e-05
-5.8963e-05
-6.93889e-05
-7.55085e-05
-7.65963e-05
-7.25423e-05
-6.34401e-05
-4.98714e-05
-3.24648e-05
-1.20929e-05
1.04838e-05
3.44353e-05
5.90701e-05
8.36376e-05
0.000107432
0.000129648
0.000149493
0.000166155
0.000178937
0.000187308
0.000191001
0.000190074
0.000184938
0.000176376
0.000165438
0.000153422
0.000141685
0.000131629
0.000124484
0.000121315
0.000122833
0.000129477
0.000141275
0.000157979
0.000178953
0.000203374
0.000230127
0.000258037
0.000285774
0.000312104
0.000335812
0.000355969
0.000371836
0.000383099
0.000389727
0.000392158
0.00039107
0.000387524
0.000382683
0.000377916
0.0003745
0.000373703
0.000376484
0.000383605
0.000395376
0.000411817
0.000432475
0.00045666
0.000483322
0.000511329
0.000539382
0.000566302
0.000590957
0.000612534
0.000630436
0.000644503
0.00065485
0.000662009
0.000666715
0.000669994
0.000672913
0.000676637
0.000682175
0.000690434
0.000702
0.000717226
0.000736075
0.000758262
0.00078316
0.000809996
0.000837802
0.000865636
0.00089254
0.000917755
0.000940672
0.000960992
0.000978635
0.000993849
0.00100707
0.00101897
0.00103028
0.00104184
0.0010544
0.00106863
0.00108501
0.00110386
0.00112521
0.00114893
0.00117464
0.00120186
0.00122997
0.00125835
0.00128637
0.00131353
0.00133944
0.00136388
0.00138681
0.00140835
0.00142878
0.0014485
0.00146796
0.00148765
0.001508
0.0015294
0.00155213
0.00157633
0.00160201
0.00162907
0.0016573
0.00168639
0.00171602
0.00174583
0.0017755
0.00180477
0.00183345
0.00186145
0.00188874
0.00191543
0.00194165
0.0019676
0.0019935
0.00201957
0.00204599
0.00207292
0.00210043
0.00212858
0.0021573
0.00218651
0.00221608
0.00224584
0.00227559
0.00230519
0.00233445
0.00236325
0.00239149
0.00241912
0.00244611
0.00247247
0.00249822
0.00252341
0.00254807
0.00257225
0.00259596
0.00261919
0.00264193
0.00266413
0.00268571
0.00270661
0.00272674
0.00274604
0.00276444
0.00278188
0.0027983
0.00281366
0.00282792
0.00284106
0.00285305
0.00286389
0.00287357
0.0028821
0.00288947
0.00289573
-4.80874e-05
-4.55338e-05
-4.12563e-05
-3.57086e-05
-2.87811e-05
-2.09362e-05
-1.19133e-05
-2.00577e-06
9.07978e-06
2.09011e-05
3.34054e-05
4.57384e-05
5.74613e-05
6.75305e-05
7.55536e-05
8.08054e-05
8.33234e-05
8.29551e-05
8.0156e-05
7.4935e-05
6.7674e-05
5.81981e-05
4.66351e-05
3.27073e-05
1.66449e-05
-1.40426e-06
-2.06086e-05
-4.00725e-05
-5.83273e-05
-7.4061e-05
-8.57974e-05
-9.25656e-05
-9.35871e-05
-8.87444e-05
-7.81826e-05
-6.2569e-05
-4.26612e-05
-1.94408e-05
6.19026e-06
3.3261e-05
6.0928e-05
8.82894e-05
0.000114482
0.000138557
0.000159593
0.000176686
0.00018909
0.000196273
0.000198022
0.000194491
0.000186236
0.000174231
0.000159746
0.000144311
0.00012952
0.000116987
0.000108111
0.000104066
0.000105607
0.000113153
0.000126645
0.000145721
0.000169566
0.000197147
0.000227114
0.000258054
0.000288404
0.000316729
0.000341658
0.000362169
0.000377493
0.000387357
0.00039182
0.000391478
0.00038722
0.000380344
0.000372266
0.000364597
0.00035883
0.0003564
0.000358373
0.000365543
0.000378186
0.000396229
0.000419059
0.000445778
0.0004751
0.000505646
0.000535884
0.000564433
0.000590014
0.000611726
0.000628954
0.000641584
0.000649844
0.000654437
0.000656306
0.000656705
0.000656924
0.000658333
0.000662103
0.000669251
0.000680404
0.000695897
0.000715613
0.000739138
0.000765675
0.000794255
0.000823708
0.000852902
0.000880722
0.000906295
0.000928947
0.000948376
0.000964557
0.000977841
0.000988804
0.000998285
0.00100719