/*--------------------------------*- C++ -*----------------------------------*\
| =========                 |                                                 |
| \\      /  F ield         | OpenFOAM: The Open Source CFD Toolbox           |
|  \\    /   O peration     | Version:  v1912                                 |
|   \\  /    A nd           | Website:  www.openfoam.com                      |
|    \\/     M anipulation  |                                                 |
\*---------------------------------------------------------------------------*/
FoamFile
{
    version     2.0;
    format      ascii;
    class       surfaceScalarField;
    location    "0.8";
    object      phi;
}
// * * * * * * * * * * * * * * * * * * * * * * * * * * * * * * * * * * * * * //

dimensions      [0 3 -1 0 0 0 0];
oriented        oriented;


internalField   nonuniform List<scalar> 
23660
(
3.87646e-06
8.37099e-10
3.87651e-06
-9.74362e-10
3.87645e-06
8.6696e-10
3.87637e-06
-8.6951e-10
3.87631e-06
8.81272e-10
3.87625e-06
-8.36e-10
3.87623e-06
8.50119e-10
3.87622e-06
-8.27842e-10
3.87624e-06
8.21684e-10
3.87624e-06
-8.13819e-10
3.87625e-06
8.04187e-10
3.87624e-06
-7.90218e-10
3.87624e-06
7.9037e-10
3.87623e-06
-7.69637e-10
3.87623e-06
7.80137e-10
3.87623e-06
-7.53518e-10
3.87623e-06
7.62142e-10
3.87624e-06
-7.42323e-10
3.87625e-06
7.38698e-10
3.87626e-06
-7.34654e-10
3.87628e-06
7.12473e-10
3.8763e-06
-7.27773e-10
3.87632e-06
6.86746e-10
3.87634e-06
-7.20294e-10
3.87636e-06
6.65032e-10
3.87638e-06
-7.16763e-10
3.87639e-06
6.47326e-10
3.8764e-06
-7.07678e-10
3.8764e-06
6.3447e-10
3.8764e-06
-6.9071e-10
3.87639e-06
6.28882e-10
3.87638e-06
-6.6685e-10
3.87635e-06
6.28753e-10
3.87634e-06
-6.38362e-10
3.8763e-06
6.31229e-10
3.87628e-06
-6.07745e-10
3.87623e-06
6.34136e-10
3.8762e-06
-5.81231e-10
3.87614e-06
6.36095e-10
3.87612e-06
-5.59924e-10
3.87606e-06
6.3649e-10
3.87603e-06
-5.42652e-10
3.87598e-06
6.33106e-10
3.87596e-06
-5.29146e-10
3.87591e-06
6.25277e-10
3.8759e-06
-5.18594e-10
3.87586e-06
6.13546e-10
3.87586e-06
-5.11737e-10
3.87581e-06
5.98468e-10
3.87582e-06
-5.07067e-10
3.87578e-06
5.81893e-10
3.87578e-06
-5.03603e-10
3.87574e-06
5.63342e-10
3.87574e-06
-4.99332e-10
3.8757e-06
5.48274e-10
3.87569e-06
-4.92383e-10
3.87564e-06
5.41571e-10
3.87564e-06
-4.79405e-10
3.87558e-06
5.39845e-10
3.87556e-06
-4.60314e-10
3.8755e-06
5.40837e-10
3.87548e-06
-4.40709e-10
3.87541e-06
5.44291e-10
3.87539e-06
-4.23158e-10
3.87531e-06
5.47686e-10
3.87529e-06
-4.08529e-10
3.87521e-06
5.46925e-10
3.87519e-06
-3.9679e-10
3.87512e-06
5.42578e-10
3.8751e-06
-3.8831e-10
3.87503e-06
5.35241e-10
3.87502e-06
-3.82367e-10
3.87495e-06
5.25367e-10
3.87494e-06
-3.77875e-10
3.87487e-06
5.1472e-10
3.87486e-06
-3.73418e-10
3.87478e-06
5.05073e-10
3.87477e-06
-3.66828e-10
3.8747e-06
4.98459e-10
3.87468e-06
-3.57155e-10
3.8746e-06
4.96498e-10
3.87458e-06
-3.45013e-10
3.8745e-06
4.97537e-10
3.87447e-06
-3.31716e-10
3.87438e-06
5.00083e-10
3.87436e-06
-3.18433e-10
3.87426e-06
5.02084e-10
3.87424e-06
-3.06432e-10
3.87414e-06
5.02396e-10
3.87412e-06
-2.96597e-10
3.87402e-06
5.00365e-10
3.874e-06
-2.88895e-10
3.8739e-06
4.96675e-10
3.87388e-06
-2.82485e-10
3.87378e-06
4.92181e-10
3.87376e-06
-2.76551e-10
3.87366e-06
4.87798e-10
3.87363e-06
-2.70181e-10
3.87353e-06
4.8463e-10
3.87351e-06
-2.62488e-10
3.8734e-06
4.83442e-10
3.87338e-06
-2.53252e-10
3.87327e-06
4.84179e-10
3.87324e-06
-2.42911e-10
3.87312e-06
4.86301e-10
3.87309e-06
-2.32169e-10
3.87298e-06
4.88892e-10
3.87294e-06
-2.21816e-10
3.87282e-06
4.91105e-10
3.87279e-06
-2.12366e-10
3.87266e-06
4.92523e-10
3.87263e-06
-2.03947e-10
3.8725e-06
4.93121e-10
3.87247e-06
-1.96353e-10
3.87234e-06
4.93327e-10
3.8723e-06
-1.89031e-10
3.87218e-06
4.93711e-10
3.87214e-06
-1.81494e-10
3.87201e-06
4.94736e-10
3.87196e-06
-1.73405e-10
3.87183e-06
4.96756e-10
3.87179e-06
-1.64617e-10
3.87165e-06
4.99867e-10
3.8716e-06
-1.55231e-10
3.87146e-06
5.03908e-10
3.87141e-06
-1.45516e-10
3.87127e-06
5.08557e-10
3.87122e-06
-1.35779e-10
3.87107e-06
5.1345e-10
3.87101e-06
-1.2628e-10
3.87086e-06
5.18353e-10
3.87081e-06
-1.17082e-10
3.87065e-06
5.23236e-10
3.87059e-06
-1.08096e-10
3.87043e-06
5.28241e-10
3.87037e-06
-9.91119e-11
3.8702e-06
5.33639e-10
3.87014e-06
-8.98878e-11
3.86997e-06
5.39709e-10
3.86991e-06
-8.02374e-11
3.86973e-06
5.46668e-10
3.86967e-06
-7.00762e-11
3.86949e-06
5.5463e-10
3.86942e-06
-5.9421e-11
3.86923e-06
5.63613e-10
3.86916e-06
-4.83577e-11
3.86896e-06
5.73575e-10
3.86889e-06
-3.69999e-11
3.86869e-06
5.84461e-10
3.86861e-06
-2.54694e-11
3.8684e-06
5.962e-10
3.86832e-06
-1.39496e-11
3.8681e-06
6.08618e-10
3.86802e-06
-3.02666e-12
3.8678e-06
6.21346e-10
3.86771e-06
1.34709e-11
3.86748e-06
6.34322e-10
3.86739e-06
3.03665e-11
3.86715e-06
6.4809e-10
3.86705e-06
4.73219e-11
3.8668e-06
6.63196e-10
3.8667e-06
6.49647e-11
3.86644e-06
6.79859e-10
3.86633e-06
8.35809e-11
3.86607e-06
6.98037e-10
3.86596e-06
1.03219e-10
3.86568e-06
7.17364e-10
3.86556e-06
1.23681e-10
3.86527e-06
7.37569e-10
3.86513e-06
1.44923e-10
3.86483e-06
7.58887e-10
3.86469e-06
1.67176e-10
3.86437e-06
7.81818e-10
3.86422e-06
1.90881e-10
3.86389e-06
8.06935e-10
3.86371e-06
2.16577e-10
3.86337e-06
8.34806e-10
3.86318e-06
2.44857e-10
3.86281e-06
8.66014e-10
3.86261e-06
2.7636e-10
3.86222e-06
9.01177e-10
3.86199e-06
3.11794e-10
3.86158e-06
9.40998e-10
3.86133e-06
3.52021e-10
3.86089e-06
9.86424e-10
3.86061e-06
3.98314e-10
3.86013e-06
1.03914e-09
3.85982e-06
4.52958e-10
3.8593e-06
1.10239e-09
3.85895e-06
5.20435e-10
3.85837e-06
1.18369e-09
3.85795e-06
6.12534e-10
3.85728e-06
1.30605e-09
3.85675e-06
7.61439e-10
3.85589e-06
1.5207e-09
3.85515e-06
1.02788e-09
3.85398e-06
1.9029e-09
3.85286e-06
1.50359e-09
3.85116e-06
2.55696e-09
1.95888e-09
3.84989e-06
4.18596e-06
7.35107e-10
4.18585e-06
-8.67267e-10
4.18594e-06
7.843e-10
4.18583e-06
-7.5764e-10
4.1859e-06
8.10314e-10
4.18578e-06
-7.22023e-10
4.18585e-06
7.85307e-10
4.18574e-06
-7.23824e-10
4.18582e-06
7.48834e-10
4.18571e-06
-7.1138e-10
4.18578e-06
7.33404e-10
4.18568e-06
-6.87257e-10
4.18575e-06
7.19515e-10
4.18565e-06
-6.70232e-10
4.18573e-06
7.03749e-10
4.18564e-06
-6.61943e-10
4.18572e-06
6.78632e-10
4.18564e-06
-6.60748e-10
4.18573e-06
6.46647e-10
4.18566e-06
-6.64151e-10
4.18576e-06
6.13504e-10
4.1857e-06
-6.69137e-10
4.1858e-06
5.8366e-10
4.18576e-06
-6.71634e-10
4.18586e-06
5.6017e-10
4.18581e-06
-6.66908e-10
4.18591e-06
5.45844e-10
4.18586e-06
-6.51407e-10
4.18595e-06
5.43087e-10
4.18588e-06
-6.2363e-10
4.18596e-06
5.51681e-10
4.18588e-06
-5.85049e-10
4.18594e-06
5.68253e-10
4.18584e-06
-5.41713e-10
4.18588e-06
5.89358e-10
4.18577e-06
-4.99953e-10
4.1858e-06
6.09362e-10
4.18568e-06
-4.64554e-10
4.1857e-06
6.21937e-10
4.18557e-06
-4.37336e-10
4.18558e-06
6.25851e-10
4.18546e-06
-4.20381e-10
4.18548e-06
6.18643e-10
4.18536e-06
-4.13615e-10
4.18538e-06
6.0239e-10
4.18528e-06
-4.14276e-10
4.18531e-06
5.79858e-10
4.18522e-06
-4.19156e-10
4.18527e-06
5.5317e-10
4.18518e-06
-4.2608e-10
4.18524e-06
5.30394e-10
4.18516e-06
-4.31445e-10
4.18521e-06
5.13458e-10
4.18514e-06
-4.29099e-10
4.18519e-06
5.04452e-10
4.18511e-06
-4.16898e-10
4.18515e-06
5.06512e-10
4.18506e-06
-3.94123e-10
4.18508e-06
5.17287e-10
4.18499e-06
-3.64113e-10
4.185e-06
5.31784e-10
4.18489e-06
-3.34953e-10
4.18489e-06
5.46783e-10
4.18478e-06
-3.11014e-10
4.18477e-06
5.55779e-10
4.18465e-06
-2.94475e-10
4.18465e-06
5.55096e-10
4.18454e-06
-2.86677e-10
4.18453e-06
5.45629e-10
4.18443e-06
-2.85059e-10
4.18443e-06
5.30707e-10
4.18434e-06
-2.86098e-10
4.18435e-06
5.15513e-10
4.18426e-06
-2.87951e-10
4.18427e-06
5.03153e-10
4.18418e-06
-2.87365e-10
4.18419e-06
4.95804e-10
4.18411e-06
-2.80027e-10
4.18411e-06
4.95284e-10
4.18402e-06
-2.65056e-10
4.18401e-06
5.01216e-10
4.18391e-06
-2.45572e-10
4.1839e-06
5.11015e-10
4.18379e-06
-2.25447e-10
4.18377e-06
5.21855e-10
4.18366e-06
-2.07687e-10
4.18363e-06
5.29211e-10
4.18352e-06
-1.93654e-10
4.18349e-06
5.30728e-10
4.18338e-06
-1.8484e-10
4.18336e-06
5.26205e-10
4.18325e-06
-1.79925e-10
4.18322e-06
5.19681e-10
4.18312e-06
-1.7682e-10
4.1831e-06
5.13513e-10
4.18299e-06
-1.73419e-10
4.18297e-06
5.09442e-10
4.18287e-06
-1.67298e-10
4.18284e-06
5.09135e-10
4.18274e-06
-1.57208e-10
4.18271e-06
5.13084e-10
4.1826e-06
-1.43997e-10
4.18256e-06
5.20129e-10
4.18245e-06
-1.29063e-10
4.18241e-06
5.28599e-10
4.18229e-06
-1.14076e-10
4.18224e-06
5.36078e-10
4.18212e-06
-1.00635e-10
4.18207e-06
5.40999e-10
4.18195e-06
-8.95287e-11
4.1819e-06
5.43249e-10
4.18177e-06
-8.08657e-11
4.18172e-06
5.44057e-10
4.1816e-06
-7.37949e-11
4.18155e-06
5.44834e-10
4.18143e-06
-6.63617e-11
4.18137e-06
5.4657e-10
4.18125e-06
-5.75978e-11
4.18119e-06
5.50277e-10
4.18107e-06
-4.70241e-11
4.18101e-06
5.56207e-10
4.18088e-06
-3.47135e-11
4.18081e-06
5.63901e-10
4.18068e-06
-2.11988e-11
4.18061e-06
5.72583e-10
4.18047e-06
-7.18286e-12
4.1804e-06
5.81403e-10
4.18026e-06
6.3909e-12
4.18018e-06
5.89696e-10
4.18004e-06
1.91241e-11
4.17996e-06
5.9722e-10
4.17981e-06
3.11402e-11
4.17973e-06
6.04311e-10
4.17958e-06
4.27978e-11
4.17949e-06
6.11664e-10
4.17934e-06
5.46834e-11
4.17925e-06
6.19951e-10
4.1791e-06
6.73516e-11
4.17901e-06
6.2962e-10
4.17885e-06
8.11553e-11
4.17875e-06
6.4082e-10
4.17859e-06
9.61823e-11
4.17849e-06
6.5343e-10
4.17832e-06
1.1229e-10
4.17821e-06
6.6715e-10
4.17803e-06
1.29206e-10
4.17793e-06
6.8163e-10
4.17774e-06
1.46654e-10
4.17763e-06
6.96607e-10
4.17744e-06
1.6448e-10
4.17732e-06
7.12055e-10
4.17713e-06
1.82762e-10
4.17701e-06
7.28363e-10
4.1768e-06
2.01893e-10
4.17668e-06
7.46422e-10
4.17647e-06
2.22481e-10
4.17634e-06
7.66625e-10
4.17612e-06
2.4459e-10
4.17598e-06
7.8854e-10
4.17576e-06
2.68068e-10
4.17561e-06
8.11984e-10
4.17538e-06
2.93031e-10
4.17523e-06
8.37153e-10
4.17499e-06
3.19624e-10
4.17482e-06
8.64162e-10
4.17458e-06
3.47953e-10
4.1744e-06
8.93313e-10
4.17415e-06
3.78303e-10
4.17396e-06
9.24843e-10
4.1737e-06
4.10735e-10
4.1735e-06
9.58824e-10
4.17322e-06
4.45478e-10
4.173e-06
9.95659e-10
4.17271e-06
4.83107e-10
4.17248e-06
1.03611e-09
4.17218e-06
5.24467e-10
4.17193e-06
1.08112e-09
4.1716e-06
5.70549e-10
4.17134e-06
1.13175e-09
4.17099e-06
6.22475e-10
4.1707e-06
1.1892e-09
4.17033e-06
6.81655e-10
4.17002e-06
1.25515e-09
4.16962e-06
7.5005e-10
4.16928e-06
1.33183e-09
4.16884e-06
8.30158e-10
4.16846e-06
1.42288e-09
4.16798e-06
9.29937e-10
4.16754e-06
1.54305e-09
4.167e-06
1.06576e-09
4.16647e-06
1.71122e-09
4.16583e-06
1.25469e-09
4.16519e-06
1.9445e-09
4.16443e-06
1.51731e-09
4.16369e-06
2.26232e-09
4.16284e-06
1.87584e-09
4.16207e-06
2.68081e-09
4.16123e-06
2.34146e-09
4.1606e-06
3.18108e-09
2.82017e-09
4.15974e-06
4.5202e-06
5.95221e-10
4.51992e-06
-5.85951e-10
4.52012e-06
5.81539e-10
4.5199e-06
-5.37885e-10
4.52012e-06
5.95032e-10
4.51991e-06
-5.08971e-10
4.52011e-06
5.82749e-10
4.51989e-06
-5.03584e-10
4.52008e-06
5.57792e-10
4.51986e-06
-4.88993e-10
4.52004e-06
5.45769e-10
4.51983e-06
-4.70318e-10
4.52001e-06
5.36584e-10
4.5198e-06
-4.59369e-10
4.51999e-06
5.15607e-10
4.51979e-06
-4.60153e-10
4.51998e-06
4.82661e-10
4.51979e-06
-4.711e-10
4.52e-06
4.42168e-10
4.51982e-06
-4.86509e-10
4.52003e-06
3.9982e-10
4.51986e-06
-5.00818e-10
4.52009e-06
3.62787e-10
4.51992e-06
-5.08971e-10
4.52015e-06
3.37521e-10
4.51998e-06
-5.03767e-10
4.5202e-06
3.2899e-10
4.52003e-06
-4.81819e-10
4.52023e-06
3.3996e-10
4.52005e-06
-4.43474e-10
4.52024e-06
3.67044e-10
4.52004e-06
-3.91828e-10
4.52021e-06
4.03396e-10
4.52e-06
-3.32928e-10
4.52015e-06
4.42031e-10
4.51992e-06
-2.75928e-10
4.52006e-06
4.75828e-10
4.51982e-06
-2.29948e-10
4.51995e-06
4.9803e-10
4.51971e-06
-1.98272e-10
4.51983e-06
5.05032e-10
4.51959e-06
-1.84469e-10
4.51972e-06
4.95329e-10
4.51949e-06
-1.87809e-10
4.51962e-06
4.71491e-10
4.51941e-06
-2.00913e-10
4.51955e-06
4.38622e-10
4.51935e-06
-2.19493e-10
4.5195e-06
4.02353e-10
4.51931e-06
-2.37408e-10
4.51947e-06
3.72789e-10
4.51929e-06
-2.48088e-10
4.51944e-06
3.55241e-10
4.51926e-06
-2.4548e-10
4.51941e-06
3.5327e-10
4.51922e-06
-2.27886e-10
4.51936e-06
3.68303e-10
4.51916e-06
-1.97451e-10
4.51929e-06
3.94178e-10
4.51908e-06
-1.58939e-10
4.51919e-06
4.22672e-10
4.51898e-06
-1.19578e-10
4.51907e-06
4.47274e-10
4.51885e-06
-8.94866e-11
4.51895e-06
4.61385e-10
4.51873e-06
-7.24031e-11
4.51882e-06
4.60904e-10
4.5186e-06
-7.02131e-11
4.5187e-06
4.47525e-10
4.51849e-06
-7.60723e-11
4.5186e-06
4.27007e-10
4.5184e-06
-8.52874e-11
4.5185e-06
4.07219e-10
4.51831e-06
-9.27544e-11
4.51842e-06
3.92712e-10
4.51823e-06
-9.38888e-11
4.51833e-06
3.87707e-10
4.51814e-06
-8.53732e-11
4.51824e-06
3.95643e-10
4.51804e-06
-6.71786e-11
4.51813e-06
4.11997e-10
4.51793e-06
-4.25044e-11
4.51801e-06
4.31381e-10
4.5178e-06
-1.59724e-11
4.51787e-06
4.49661e-10
4.51765e-06
6.48874e-12
4.51772e-06
4.61814e-10
4.51751e-06
2.2279e-11
4.51757e-06
4.64615e-10
4.51736e-06
2.90062e-11
4.51743e-06
4.58756e-10
4.51722e-06
3.08756e-11
4.51728e-06
4.50305e-10
4.51708e-06
3.07171e-11
4.51715e-06
4.42916e-10
4.51694e-06
3.19634e-11
4.51701e-06
4.39895e-10
4.51681e-06
3.74461e-11
4.51687e-06
4.44485e-10
4.51667e-06
4.85673e-11
4.51672e-06
4.55314e-10
4.51651e-06
6.47642e-11
4.51657e-06
4.68944e-10
4.51635e-06
8.44393e-11
4.5164e-06
4.83329e-10
4.51618e-06
1.03663e-10
4.51622e-06
4.95993e-10
4.516e-06
1.19314e-10
4.51604e-06
5.04649e-10
4.51582e-06
1.31135e-10
4.51585e-06
5.08457e-10
4.51563e-06
1.39882e-10
4.51566e-06
5.09792e-10
4.51544e-06
1.47026e-10
4.51548e-06
5.11575e-10
4.51526e-06
1.54455e-10
4.51529e-06
5.15664e-10
4.51507e-06
1.63866e-10
4.51509e-06
5.23414e-10
4.51487e-06
1.76192e-10
4.51489e-06
5.34371e-10
4.51466e-06
1.91384e-10
4.51468e-06
5.47414e-10
4.51445e-06
2.0856e-10
4.51446e-06
5.61448e-10
4.51423e-06
2.26275e-10
4.51424e-06
5.75184e-10
4.514e-06
2.43199e-10
4.514e-06
5.87646e-10
4.51376e-06
2.58731e-10
4.51376e-06
5.98634e-10
4.51352e-06
2.73105e-10
4.51351e-06
6.08885e-10
4.51327e-06
2.87025e-10
4.51326e-06
6.19602e-10
4.51301e-06
3.01429e-10
4.513e-06
6.31785e-10
4.51275e-06
3.17181e-10
4.51274e-06
6.45969e-10
4.51248e-06
3.34808e-10
4.51246e-06
6.62232e-10
4.5122e-06
3.54368e-10
4.51218e-06
6.8029e-10
4.51191e-06
3.7551e-10
4.51188e-06
6.99644e-10
4.51161e-06
3.97688e-10
4.51157e-06
7.19781e-10
4.5113e-06
4.20448e-10
4.51126e-06
7.40374e-10
4.51098e-06
4.43658e-10
4.51093e-06
7.6154e-10
4.51064e-06
4.67561e-10
4.51059e-06
7.84007e-10
4.5103e-06
4.92647e-10
4.51023e-06
8.08282e-10
4.50994e-06
5.1934e-10
4.50987e-06
8.34706e-10
4.50957e-06
5.48292e-10
4.50949e-06
8.63436e-10
4.50918e-06
5.79691e-10
4.5091e-06
8.9439e-10
4.50878e-06
6.13364e-10
4.50869e-06
9.27702e-10
4.50836e-06
6.49302e-10
4.50826e-06
9.63602e-10
4.50792e-06
6.87852e-10
4.50781e-06
1.00243e-09
4.50746e-06
7.29505e-10
4.50734e-06
1.04456e-09
4.50697e-06
7.74454e-10
4.50684e-06
1.09031e-09
4.50646e-06
8.23042e-10
4.50632e-06
1.14027e-09
4.50593e-06
8.76033e-10
4.50577e-06
1.19537e-09
4.50536e-06
9.34545e-10
4.50518e-06
1.25686e-09
4.50475e-06
9.99965e-10
4.50456e-06
1.32625e-09
4.50411e-06
1.07398e-09
4.50389e-06
1.40546e-09
4.50341e-06
1.15885e-09
4.50317e-06
1.49735e-09
4.50266e-06
1.25829e-09
4.50239e-06
1.60707e-09
4.50184e-06
1.37917e-09
4.50152e-06
1.74365e-09
4.50092e-06
1.53158e-09
4.50054e-06
1.91768e-09
4.49988e-06
1.72537e-09
4.49945e-06
2.13792e-09
4.49874e-06
1.96934e-09
4.49827e-06
2.41248e-09
4.49752e-06
2.27224e-09
4.49703e-06
2.74874e-09
4.49627e-06
2.63968e-09
4.4958e-06
3.14574e-09
4.49509e-06
3.05549e-09
4.49478e-06
3.48798e-09
3.53557e-09
4.49407e-06
4.8811e-06
4.40806e-10
4.88081e-06
-2.89786e-10
4.88097e-06
4.20822e-10
4.88074e-06
-3.09813e-10
4.88095e-06
3.81264e-10
4.88076e-06
-3.14865e-10
4.88097e-06
3.74502e-10
4.88076e-06
-2.9478e-10
4.88095e-06
3.69008e-10
4.88073e-06
-2.75621e-10
4.88091e-06
3.66689e-10
4.8807e-06
-2.5977e-10
4.88088e-06
3.58385e-10
4.88068e-06
-2.55381e-10
4.88086e-06
3.33424e-10
4.88067e-06
-2.68615e-10
4.88086e-06
2.92424e-10
4.88068e-06
-2.93633e-10
4.88088e-06
2.44124e-10
4.88071e-06
-3.23852e-10
4.88092e-06
1.95772e-10
4.88077e-06
-3.51341e-10
4.88098e-06
1.55903e-10
4.88083e-06
-3.66965e-10
4.88104e-06
1.32707e-10
4.8809e-06
-3.62272e-10
4.88109e-06
1.33372e-10
4.88094e-06
-3.32728e-10
4.88112e-06
1.59161e-10
4.88096e-06
-2.8105e-10
4.88112e-06
2.04663e-10
4.88095e-06
-2.13379e-10
4.88109e-06
2.62389e-10
4.88089e-06
-1.40524e-10
4.88101e-06
3.22632e-10
4.88081e-06
-7.21447e-11
4.88091e-06
3.74068e-10
4.8807e-06
-1.92685e-11
4.88079e-06
4.07016e-10
4.88058e-06
1.36898e-11
4.88067e-06
4.16136e-10
4.88046e-06
2.41039e-11
4.88056e-06
4.00148e-10
4.88036e-06
1.22435e-11
4.88046e-06
3.67466e-10
4.88027e-06
-1.43747e-11
4.88039e-06
3.25764e-10
4.88022e-06
-4.87086e-11
4.88033e-06
2.83164e-10
4.88018e-06
-7.96405e-11
4.8803e-06
2.50261e-10
4.88015e-06
-9.68782e-11
4.88027e-06
2.34807e-10
4.88012e-06
-9.41435e-11
4.88023e-06
2.42111e-10
4.88007e-06
-6.9651e-11
4.88017e-06
2.69779e-10
4.88e-06
-2.97072e-11
4.88009e-06
3.09932e-10
4.87991e-06
1.7745e-11
4.87998e-06
3.52858e-10
4.87979e-06
6.48669e-11
4.87985e-06
3.87747e-10
4.87966e-06
9.95642e-11
4.87972e-06
4.06378e-10
4.87953e-06
1.16061e-10
4.87959e-06
4.04422e-10
4.8794e-06
1.13091e-10
4.87946e-06
3.87995e-10
4.87929e-06
9.88848e-11
4.87935e-06
3.64191e-10
4.87919e-06
8.06091e-11
4.87925e-06
3.41283e-10
4.87909e-06
6.64276e-11
4.87916e-06
3.26832e-10
4.879e-06
6.27027e-11
4.87906e-06
3.26583e-10
4.8789e-06
7.34355e-11
4.87896e-06
3.41953e-10
4.87879e-06
9.72392e-11
4.87884e-06
3.66457e-10
4.87867e-06
1.28332e-10
4.8787e-06
3.95178e-10
4.87853e-06
1.60715e-10
4.87856e-06
4.2107e-10
4.87838e-06
1.86984e-10
4.8784e-06
4.37993e-10
4.87822e-06
2.02915e-10
4.87824e-06
4.42503e-10
4.87806e-06
2.0653e-10
4.87808e-06
4.37782e-10
4.87791e-06
2.03804e-10
4.87793e-06
4.29502e-10
4.87776e-06
1.99278e-10
4.87778e-06
4.22442e-10
4.87762e-06
1.97992e-10
4.87764e-06
4.21343e-10
4.87747e-06
2.04108e-10
4.87749e-06
4.29518e-10
4.87731e-06
2.18961e-10
4.87732e-06
4.45152e-10
4.87715e-06
2.3958e-10
4.87715e-06
4.65148e-10
4.87698e-06
2.63307e-10
4.87697e-06
4.86087e-10
4.87679e-06
2.86109e-10
4.87678e-06
5.03864e-10
4.8766e-06
3.04333e-10
4.87659e-06
5.15862e-10
4.8764e-06
3.16487e-10
4.87639e-06
5.22407e-10
4.8762e-06
3.24135e-10
4.87619e-06
5.26318e-10
4.876e-06
3.30351e-10
4.87598e-06
5.30296e-10
4.8758e-06
3.37777e-10
4.87578e-06
5.36992e-10
4.87559e-06
3.48762e-10
4.87557e-06
5.4814e-10
4.87538e-06
3.6409e-10
4.87535e-06
5.63472e-10
4.87516e-06
3.82921e-10
4.87513e-06
5.81701e-10
4.87493e-06
4.03965e-10
4.87489e-06
6.012e-10
4.87469e-06
4.25375e-10
4.87465e-06
6.20112e-10
4.87444e-06
4.45504e-10
4.8744e-06
6.37188e-10
4.87419e-06
4.63592e-10
4.87414e-06
6.52325e-10
4.87393e-06
4.80036e-10
4.87387e-06
6.66529e-10
4.87366e-06
4.96053e-10
4.8736e-06
6.81261e-10
4.87339e-06
5.1306e-10
4.87332e-06
6.9775e-10
4.87311e-06
5.32153e-10
4.87304e-06
7.1674e-10
4.87282e-06
5.53842e-10
4.87274e-06
7.38393e-10
4.87252e-06
5.78022e-10
4.87244e-06
7.62325e-10
4.87221e-06
6.0413e-10
4.87212e-06
7.87841e-10
4.87189e-06
6.31433e-10
4.87179e-06
8.14258e-10
4.87155e-06
6.5937e-10
4.87145e-06
8.41231e-10
4.87121e-06
6.87826e-10
4.8711e-06
8.6895e-10
4.87085e-06
7.17191e-10
4.87074e-06
8.98004e-10
4.87048e-06
7.48066e-10
4.87036e-06
9.28969e-10
4.8701e-06
7.81048e-10
4.86997e-06
9.62431e-10
4.8697e-06
8.16719e-10
4.86957e-06
9.98861e-10
4.86929e-06
8.55414e-10
4.86915e-06
1.03841e-09
4.86886e-06
8.97191e-10
4.86871e-06
1.08112e-09
4.86842e-06
9.42139e-10
4.86825e-06
1.12718e-09
4.86795e-06
9.90523e-10
4.86778e-06
1.17696e-09
4.86746e-06
1.04273e-09
4.86728e-06
1.23087e-09
4.86695e-06
1.09923e-09
4.86675e-06
1.28944e-09
4.86642e-06
1.16065e-09
4.8662e-06
1.35348e-09
4.86585e-06
1.228e-09
4.86562e-06
1.42417e-09
4.86525e-06
1.30264e-09
4.86501e-06
1.50306e-09
4.86462e-06
1.38633e-09
4.86436e-06
1.59221e-09
4.86395e-06
1.48145e-09
4.86366e-06
1.69446e-09
4.86323e-06
1.59145e-09
4.86291e-06
1.81403e-09
4.86245e-06
1.72116e-09
4.8621e-06
1.95633e-09
4.8616e-06
1.87624e-09
4.86122e-06
2.12687e-09
4.86069e-06
2.06187e-09
4.86027e-06
2.33036e-09
4.85972e-06
2.28269e-09
4.85928e-06
2.57113e-09
4.85871e-06
2.54303e-09
4.85827e-06
2.85296e-09
4.8577e-06
2.8458e-09
4.85727e-06
3.17666e-09
4.85672e-06
3.18813e-09
4.85634e-06
3.53004e-09
4.85588e-06
3.51466e-09
4.85549e-06
3.87071e-09
4.03165e-09
4.855e-06
5.27078e-06
3.04891e-10
5.27058e-06
-8.29228e-11
5.27067e-06
3.24782e-10
5.27048e-06
-1.13266e-10
5.2706e-06
2.60903e-10
5.27044e-06
-1.59304e-10
5.27058e-06
2.29868e-10
5.27044e-06
-1.50251e-10
5.27057e-06
2.39417e-10
5.27042e-06
-1.28473e-10
5.27054e-06
2.47291e-10
5.27039e-06
-1.1179e-10
5.27051e-06
2.39955e-10
5.27037e-06
-1.14765e-10
5.2705e-06
2.09337e-10
5.27037e-06
-1.41935e-10
5.2705e-06
1.60069e-10
5.27039e-06
-1.82004e-10
5.27053e-06
1.04508e-10
5.27043e-06
-2.27133e-10
5.27058e-06
4.97681e-11
5.27049e-06
-2.66709e-10
5.27064e-06
7.67789e-12
5.27056e-06
-2.8791e-10
5.27071e-06
-1.25586e-11
5.27063e-06
-2.80389e-10
5.27076e-06
-2.02594e-12
5.27067e-06
-2.40864e-10
5.27079e-06
3.97328e-11
5.27068e-06
-1.75264e-10
5.27078e-06
1.06589e-10
5.27066e-06
-9.161e-11
5.27073e-06
1.87682e-10
5.2706e-06
-3.70912e-12
5.27065e-06
2.67872e-10
5.2705e-06
7.98153e-11
5.27054e-06
3.32459e-10
5.27038e-06
1.41408e-10
5.27042e-06
3.72345e-10
5.27026e-06
1.75036e-10
5.27029e-06
3.82701e-10
5.27013e-06
1.77857e-10
5.27017e-06
3.63395e-10
5.27003e-06
1.54003e-10
5.27007e-06
3.23167e-10
5.26995e-06
1.13232e-10
5.27e-06
2.71356e-10
5.26989e-06
6.60312e-11
5.26995e-06
2.20092e-10
5.26984e-06
2.57568e-11
5.26991e-06
1.82735e-10
5.26981e-06
4.47447e-12
5.26987e-06
1.70383e-10
5.26977e-06
8.71103e-12
5.26983e-06
1.8835e-10
5.26971e-06
4.08136e-11
5.26976e-06
2.28032e-10
5.26963e-06
9.24235e-11
5.26966e-06
2.81217e-10
5.26953e-06
1.51792e-10
5.26955e-06
3.36018e-10
5.2694e-06
2.06263e-10
5.26941e-06
3.79871e-10
5.26927e-06
2.44166e-10
5.26927e-06
4.02288e-10
5.26913e-06
2.58104e-10
5.26913e-06
4.00062e-10
5.269e-06
2.49647e-10
5.269e-06
3.8091e-10
5.26888e-06
2.2778e-10
5.26889e-06
3.52849e-10
5.26877e-06
2.01944e-10
5.26878e-06
3.26489e-10
5.26866e-06
1.82737e-10
5.26868e-06
3.11863e-10
5.26856e-06
1.78759e-10
5.26857e-06
3.15978e-10
5.26845e-06
1.93867e-10
5.26846e-06
3.37535e-10
5.26833e-06
2.23579e-10
5.26833e-06
3.70602e-10
5.26819e-06
2.61798e-10
5.26818e-06
4.0803e-10
5.26804e-06
2.99953e-10
5.26802e-06
4.40826e-10
5.26788e-06
3.29665e-10
5.26786e-06
4.61487e-10
5.26771e-06
3.45365e-10
5.26769e-06
4.67336e-10
5.26755e-06
3.47128e-10
5.26752e-06
4.63022e-10
5.26739e-06
3.41264e-10
5.26736e-06
4.53928e-10
5.26723e-06
3.3382e-10
5.2672e-06
4.46774e-10
5.26707e-06
3.31396e-10
5.26704e-06
4.47703e-10
5.26691e-06
3.3906e-10
5.26688e-06
4.59908e-10
5.26674e-06
3.57209e-10
5.2667e-06
4.80844e-10
5.26656e-06
3.82393e-10
5.26652e-06
5.07085e-10
5.26637e-06
4.10749e-10
5.26632e-06
5.33929e-10
5.26617e-06
4.37276e-10
5.26612e-06
5.56434e-10
5.26597e-06
4.5785e-10
5.26591e-06
5.71631e-10
5.26576e-06
4.70878e-10
5.2657e-06
5.80538e-10
5.26554e-06
4.78739e-10
5.26548e-06
5.86302e-10
5.26533e-06
4.85098e-10
5.26527e-06
5.92219e-10
5.26511e-06
4.93373e-10
5.26505e-06
6.01646e-10
5.26489e-06
5.06344e-10
5.26482e-06
6.16523e-10
5.26466e-06
5.24683e-10
5.26459e-06
6.36486e-10
5.26442e-06
5.47397e-10
5.26434e-06
6.59988e-10
5.26417e-06
5.72671e-10
5.26409e-06
6.84822e-10
5.26392e-06
5.98136e-10
5.26383e-06
7.087e-10
5.26365e-06
6.2183e-10
5.26356e-06
7.30195e-10
5.26338e-06
6.42941e-10
5.26328e-06
7.49322e-10
5.2631e-06
6.62076e-10
5.263e-06
7.67344e-10
5.26282e-06
6.80845e-10
5.26271e-06
7.86011e-10
5.26252e-06
7.01018e-10
5.26241e-06
8.0685e-10
5.26222e-06
7.2389e-10
5.26211e-06
8.30776e-10
5.26191e-06
7.50013e-10
5.26179e-06
8.57939e-10
5.26159e-06
7.79173e-10
5.26147e-06
8.87816e-10
5.26126e-06
8.10618e-10
5.26113e-06
9.1952e-10
5.26092e-06
8.43439e-10
5.26078e-06
9.52235e-10
5.26056e-06
8.76989e-10
5.26042e-06
9.85576e-10
5.26019e-06
9.11156e-10
5.26004e-06
1.01973e-09
5.25981e-06
9.46357e-10
5.25966e-06
1.0553e-09
5.25942e-06
9.83315e-10
5.25926e-06
1.09307e-09
5.25901e-06
1.02283e-09
5.25884e-06
1.13379e-09
5.25859e-06
1.06558e-09
5.25842e-06
1.17804e-09
5.25816e-06
1.11201e-09
5.25797e-06
1.22613e-09
5.25771e-06
1.16233e-09
5.25751e-06
1.27819e-09
5.25723e-06
1.21662e-09
5.25703e-06
1.33433e-09
5.25674e-06
1.27508e-09
5.25652e-06
1.39482e-09
5.25623e-06
1.33806e-09
5.256e-06
1.46015e-09
5.25569e-06
1.40617e-09
5.25545e-06
1.53105e-09
5.25513e-06
1.48028e-09
5.25488e-06
1.60857e-09
5.25454e-06
1.56165e-09
5.25427e-06
1.69415e-09
5.25392e-06
1.6519e-09
5.25364e-06
1.78967e-09
5.25327e-06
1.75317e-09
5.25297e-06
1.89754e-09
5.25258e-06
1.86816e-09
5.25225e-06
2.02076e-09
5.25184e-06
2.00005e-09
5.2515e-06
2.1626e-09
5.25106e-06
2.15208e-09
5.25069e-06
2.3261e-09
5.25024e-06
2.32712e-09
5.24986e-06
2.51393e-09
5.24939e-06
2.52772e-09
5.24899e-06
2.7285e-09
5.24852e-06
2.75621e-09
5.24812e-06
2.97184e-09
5.24765e-06
3.01414e-09
5.24726e-06
3.24457e-09
5.2468e-06
3.3006e-09
5.24643e-06
3.54279e-09
5.24602e-06
3.60397e-09
5.24572e-06
3.83176e-09
5.24532e-06
3.90917e-09
5.24501e-06
4.18343e-09
4.37725e-09
5.24466e-06
5.69156e-06
2.04605e-10
5.69145e-06
2.21707e-11
5.6915e-06
2.77867e-10
5.69137e-06
2.15421e-11
5.69141e-06
2.2126e-10
5.69128e-06
-2.82694e-11
5.69133e-06
1.75917e-10
5.69123e-06
-4.84292e-11
5.69129e-06
1.76091e-10
5.6912e-06
-3.54282e-11
5.69126e-06
1.82307e-10
5.69118e-06
-2.6276e-11
5.69124e-06
1.7292e-10
5.69117e-06
-3.70251e-11
5.69124e-06
1.37503e-10
5.69117e-06
-7.42935e-11
5.69125e-06
7.84399e-11
5.6912e-06
-1.29375e-10
5.69129e-06
1.51115e-11
5.69125e-06
-1.87207e-10
5.69135e-06
-4.80659e-11
5.69131e-06
-2.34265e-10
5.69142e-06
-9.41692e-11
5.69139e-06
-2.57271e-10
5.69148e-06
-1.09981e-10
5.69145e-06
-2.45113e-10
5.69153e-06
-8.71007e-11
5.69149e-06
-1.95653e-10
5.69156e-06
-2.83329e-11
5.69149e-06
-1.13911e-10
5.69154e-06
6.04876e-11
5.69146e-06
-1.20819e-11
5.69149e-06
1.63182e-10
5.69138e-06
9.68626e-11
5.69139e-06
2.61326e-10
5.69128e-06
1.92646e-10
5.69127e-06
3.3925e-10
5.69115e-06
2.6091e-10
5.69114e-06
3.85033e-10
5.69102e-06
2.93994e-10
5.69101e-06
3.94028e-10
5.6909e-06
2.89888e-10
5.69089e-06
3.69365e-10
5.69079e-06
2.55323e-10
5.69079e-06
3.19827e-10
5.69071e-06
2.01157e-10
5.69072e-06
2.57403e-10
5.69064e-06
1.41513e-10
5.69067e-06
1.98086e-10
5.6906e-06
9.28817e-11
5.69062e-06
1.57865e-10
5.69056e-06
6.96042e-11
5.69058e-06
1.48911e-10
5.69051e-06
8.00657e-11
5.69052e-06
1.74394e-10
5.69044e-06
1.21676e-10
5.69044e-06
2.26492e-10
5.69035e-06
1.85106e-10
5.69034e-06
2.93506e-10
5.69023e-06
2.55711e-10
5.69021e-06
3.59682e-10
5.6901e-06
3.17639e-10
5.69007e-06
4.10262e-10
5.68996e-06
3.58113e-10
5.68992e-06
4.34607e-10
5.68981e-06
3.69881e-10
5.68978e-06
4.31564e-10
5.68967e-06
3.57042e-10
5.68964e-06
4.08387e-10
5.68954e-06
3.28622e-10
5.68952e-06
3.7534e-10
5.68943e-06
2.967e-10
5.68941e-06
3.45568e-10
5.68932e-06
2.74269e-10
5.6893e-06
3.3121e-10
5.6892e-06
2.71748e-10
5.68918e-06
3.39676e-10
5.68908e-06
2.91227e-10
5.68905e-06
3.67619e-10
5.68895e-06
3.27694e-10
5.68891e-06
4.09256e-10
5.6888e-06
3.7338e-10
5.68875e-06
4.54774e-10
5.68863e-06
4.17451e-10
5.68858e-06
4.9336e-10
5.68846e-06
4.50154e-10
5.68841e-06
5.16899e-10
5.68828e-06
4.65901e-10
5.68823e-06
5.23971e-10
5.68811e-06
4.66766e-10
5.68805e-06
5.19126e-10
5.68794e-06
4.58681e-10
5.68788e-06
5.08943e-10
5.68776e-06
4.49414e-10
5.68771e-06
5.01844e-10
5.68759e-06
4.47079e-10
5.68754e-06
5.04992e-10
5.68742e-06
4.57029e-10
5.68736e-06
5.21001e-10
5.68724e-06
4.78803e-10
5.68717e-06
5.47319e-10
5.68704e-06
5.09061e-10
5.68697e-06
5.79627e-10
5.68684e-06
5.42416e-10
5.68676e-06
6.11862e-10
5.68663e-06
5.7279e-10
5.68654e-06
6.38496e-10
5.68641e-06
5.95763e-10
5.68632e-06
6.56737e-10
5.68618e-06
6.10306e-10
5.68609e-06
6.67814e-10
5.68595e-06
6.19183e-10
5.68586e-06
6.75174e-10
5.68572e-06
6.26443e-10
5.68563e-06
6.83036e-10
5.68549e-06
6.36264e-10
5.6854e-06
6.95267e-10
5.68525e-06
6.51688e-10
5.68515e-06
7.13817e-10
5.685e-06
6.73501e-10
5.6849e-06
7.38402e-10
5.68475e-06
7.00607e-10
5.68464e-06
7.67122e-10
5.68448e-06
7.30521e-10
5.68437e-06
7.97159e-10
5.68421e-06
7.60355e-10
5.68409e-06
8.25839e-10
5.68393e-06
7.87888e-10
5.6838e-06
8.51638e-10
5.68364e-06
8.1238e-10
5.68351e-06
8.74675e-10
5.68334e-06
8.34692e-10
5.68321e-06
8.96447e-10
5.68303e-06
8.5673e-10
5.6829e-06
9.19022e-10
5.68272e-06
8.80546e-10
5.68258e-06
9.44228e-10
5.6824e-06
9.07642e-10
5.68226e-06
9.73134e-10
5.68207e-06
9.38614e-10
5.68192e-06
1.00585e-09
5.68173e-06
9.73138e-10
5.68157e-06
1.0417e-09
5.68137e-06
1.01027e-09
5.68121e-06
1.07959e-09
5.68101e-06
1.04892e-09
5.68084e-06
1.11858e-09
5.68063e-06
1.08837e-09
5.68046e-06
1.15821e-09
5.68024e-06
1.12847e-09
5.68006e-06
1.19869e-09
5.67984e-06
1.16971e-09
5.67965e-06
1.24073e-09
5.67942e-06
1.21297e-09
5.67923e-06
1.28529e-09
5.67899e-06
1.25921e-09
5.67879e-06
1.33328e-09
5.67855e-06
1.30926e-09
5.67834e-06
1.38539e-09
5.67809e-06
1.36363e-09
5.67787e-06
1.44198e-09
5.67761e-06
1.42255e-09
5.67739e-06
1.50318e-09
5.67712e-06
1.4861e-09
5.67689e-06
1.56906e-09
5.67661e-06
1.55441e-09
5.67636e-06
1.63985e-09
5.67607e-06
1.62781e-09
5.67582e-06
1.71605e-09
5.67551e-06
1.707e-09
5.67525e-06
1.79855e-09
5.67493e-06
1.79303e-09
5.67465e-06
1.88857e-09
5.67433e-06
1.88733e-09
5.67404e-06
1.98772e-09
5.6737e-06
1.99164e-09
5.67339e-06
2.09788e-09
5.67303e-06
2.10797e-09
5.67271e-06
2.22113e-09
5.67234e-06
2.2384e-09
5.672e-06
2.35951e-09
5.67161e-06
2.38486e-09
5.67126e-06
2.51479e-09
5.67087e-06
2.54901e-09
5.6705e-06
2.6885e-09
5.6701e-06
2.73227e-09
5.66973e-06
2.88195e-09
5.66932e-06
2.93582e-09
5.66895e-06
3.09612e-09
5.66855e-06
3.16036e-09
5.66819e-06
3.33119e-09
5.6678e-06
3.40526e-09
5.66746e-06
3.58518e-09
5.66709e-06
3.66591e-09
5.66679e-06
3.8446e-09
5.66648e-06
3.92029e-09
5.66619e-06
4.1154e-09
5.66588e-06
4.21761e-09
5.66564e-06
4.42891e-09
4.62656e-09
5.66539e-06
6.14594e-06
1.38285e-10
6.14589e-06
6.45741e-11
6.14592e-06
2.47795e-10
6.14584e-06
1.04789e-10
6.14583e-06
2.29251e-10
6.14573e-06
7.22485e-11
6.14572e-06
1.87233e-10
6.14563e-06
4.62935e-11
6.14564e-06
1.6459e-10
6.14557e-06
3.65078e-11
6.14559e-06
1.54529e-10
6.14554e-06
2.86557e-11
6.14558e-06
1.3619e-10
6.14554e-06
2.44776e-14
6.14558e-06