/*--------------------------------*- C++ -*----------------------------------*\
| =========                 |                                                 |
| \\      /  F ield         | OpenFOAM: The Open Source CFD Toolbox           |
|  \\    /   O peration     | Version:  v1912                                 |
|   \\  /    A nd           | Website:  www.openfoam.com                      |
|    \\/     M anipulation  |                                                 |
\*---------------------------------------------------------------------------*/
FoamFile
{
    version     2.0;
    format      ascii;
    class       volVectorField;
    location    "0.8";
    object      U;
}
// * * * * * * * * * * * * * * * * * * * * * * * * * * * * * * * * * * * * * //

dimensions      [0 1 -1 0 0 0 0];


internalField   nonuniform List<vector> 
12000
(
(0.999425 8.73704e-05 0)
(1.00059 -9.40228e-05 0)
(0.999444 8.62074e-05 0)
(1.0006 -9.11496e-05 0)
(0.999448 8.7868e-05 0)
(1.00059 -8.87644e-05 0)
(0.999441 8.80079e-05 0)
(1.00058 -8.77925e-05 0)
(0.999428 8.72668e-05 0)
(1.00056 -8.72288e-05 0)
(0.999413 8.65001e-05 0)
(1.00054 -8.66287e-05 0)
(0.9994 8.5806e-05 0)
(1.00053 -8.6022e-05 0)
(0.999392 8.51109e-05 0)
(1.00052 -8.55175e-05 0)
(0.999391 8.43457e-05 0)
(1.00052 -8.51691e-05 0)
(0.999394 8.34644e-05 0)
(1.00052 -8.4976e-05 0)
(0.9994 8.25053e-05 0)
(1.00052 -8.48518e-05 0)
(0.999406 8.15751e-05 0)
(1.00053 -8.46803e-05 0)
(0.999414 8.07763e-05 0)
(1.00054 -8.4386e-05 0)
(0.999426 8.01594e-05 0)
(1.00055 -8.38993e-05 0)
(0.999439 7.97906e-05 0)
(1.00056 -8.32124e-05 0)
(0.99945 7.97148e-05 0)
(1.00057 -8.22504e-05 0)
(0.999454 7.99384e-05 0)
(1.00057 -8.10692e-05 0)
(0.999449 8.03572e-05 0)
(1.00056 -7.9809e-05 0)
(0.999434 8.08046e-05 0)
(1.00054 -7.86157e-05 0)
(0.999414 8.1149e-05 0)
(1.00052 -7.76029e-05 0)
(0.999389 8.12899e-05 0)
(1.00049 -7.6858e-05 0)
(0.999362 8.11998e-05 0)
(1.00046 -7.63561e-05 0)
(0.999334 8.09325e-05 0)
(1.00044 -7.59926e-05 0)
(0.999307 8.05858e-05 0)
(1.00041 -7.57202e-05 0)
(0.999284 8.01836e-05 0)
(1.0004 -7.55142e-05 0)
(0.999268 7.97786e-05 0)
(1.00039 -7.53055e-05 0)
(0.999259 7.94434e-05 0)
(1.00038 -7.49955e-05 0)
(0.999255 7.92656e-05 0)
(1.00038 -7.44917e-05 0)
(0.999252 7.9352e-05 0)
(1.00038 -7.37153e-05 0)
(0.999245 7.97359e-05 0)
(1.00037 -7.27176e-05 0)
(0.999232 8.02943e-05 0)
(1.00036 -7.16521e-05 0)
(0.999212 8.08698e-05 0)
(1.00034 -7.06695e-05 0)
(0.999184 8.13068e-05 0)
(1.00031 -6.9911e-05 0)
(0.999151 8.15256e-05 0)
(1.00028 -6.93908e-05 0)
(0.999115 8.15623e-05 0)
(1.00025 -6.90379e-05 0)
(0.999079 8.15144e-05 0)
(1.00022 -6.87462e-05 0)
(0.999047 8.14581e-05 0)
(1.0002 -6.847e-05 0)
(0.999021 8.14433e-05 0)
(1.00018 -6.81476e-05 0)
(0.999001 8.15468e-05 0)
(1.00016 -6.76871e-05 0)
(0.998983 8.18606e-05 0)
(1.00015 -6.70185e-05 0)
(0.998965 8.2414e-05 0)
(1.00014 -6.61622e-05 0)
(0.998944 8.31378e-05 0)
(1.00012 -6.52246e-05 0)
(0.998917 8.39152e-05 0)
(1.0001 -6.43222e-05 0)
(0.998884 8.46402e-05 0)
(1.00007 -6.35386e-05 0)
(0.998844 8.52579e-05 0)
(1.00003 -6.29032e-05 0)
(0.998802 8.5764e-05 0)
(0.999998 -6.23958e-05 0)
(0.998759 8.62085e-05 0)
(0.999964 -6.19467e-05 0)
(0.998719 8.66718e-05 0)
(0.999933 -6.14783e-05 0)
(0.998683 8.72241e-05 0)
(0.999907 -6.09278e-05 0)
(0.99865 8.79221e-05 0)
(0.999883 -6.02471e-05 0)
(0.998618 8.88013e-05 0)
(0.99986 -5.94227e-05 0)
(0.998585 8.98492e-05 0)
(0.999835 -5.84939e-05 0)
(0.998549 9.10108e-05 0)
(0.999806 -5.75242e-05 0)
(0.998508 9.22225e-05 0)
(0.999772 -5.65753e-05 0)
(0.998462 9.34319e-05 0)
(0.999734 -5.56869e-05 0)
(0.998412 9.46177e-05 0)
(0.999694 -5.48638e-05 0)
(0.998361 9.57947e-05 0)
(0.999653 -5.40774e-05 0)
(0.998309 9.70063e-05 0)
(0.999614 -5.32757e-05 0)
(0.998259 9.83076e-05 0)
(0.999576 -5.24087e-05 0)
(0.998211 9.97427e-05 0)
(0.999541 -5.14437e-05 0)
(0.998163 0.000101335 0)
(0.999505 -5.03694e-05 0)
(0.998114 0.000103087 0)
(0.999469 -4.9198e-05 0)
(0.998062 0.000104977 0)
(0.999429 -4.79557e-05 0)
(0.998007 0.00010698 0)
(0.999386 -4.66705e-05 0)
(0.997948 0.000109074 0)
(0.99934 -4.53618e-05 0)
(0.997885 0.000111247 0)
(0.999291 -4.40325e-05 0)
(0.99782 0.000113509 0)
(0.999241 -4.2667e-05 0)
(0.997753 0.000115886 0)
(0.999191 -4.12357e-05 0)
(0.997686 0.000118413 0)
(0.999142 -3.97045e-05 0)
(0.997619 0.000121126 0)
(0.999092 -3.80445e-05 0)
(0.99755 0.00012405 0)
(0.999041 -3.62374e-05 0)
(0.997479 0.000127201 0)
(0.998988 -3.42744e-05 0)
(0.997405 0.00013059 0)
(0.998933 -3.21508e-05 0)
(0.997327 0.000134222 0)
(0.998875 -2.98603e-05 0)
(0.997246 0.000138112 0)
(0.998813 -2.73901e-05 0)
(0.99716 0.00014228 0)
(0.998749 -2.47227e-05 0)
(0.997071 0.000146744 0)
(0.998683 -2.18476e-05 0)
(0.99698 0.00015151 0)
(0.998615 -1.87785e-05 0)
(0.996885 0.000156558 0)
(0.998545 -1.553e-05 0)
(0.996787 0.000161895 0)
(0.998473 -1.20792e-05 0)
(0.996686 0.000167565 0)
(0.998398 -8.37375e-06 0)
(0.99658 0.000173632 0)
(0.99832 -4.35939e-06 0)
(0.99647 0.000180148 0)
(0.998238 -2.97742e-10 0)
(0.996353 0.000187138 0)
(0.998151 4.70157e-06 0)
(0.996231 0.000194591 0)
(0.99806 9.73199e-06 0)
(0.996103 0.000202514 0)
(0.997963 1.51156e-05 0)
(0.995967 0.000210965 0)
(0.99786 2.09304e-05 0)
(0.995823 0.000220053 0)
(0.99775 2.72971e-05 0)
(0.99567 0.000229922 0)
(0.997633 3.43659e-05 0)
(0.995507 0.000240745 0)
(0.997507 4.23119e-05 0)
(0.995333 0.000252719 0)
(0.99737 5.13401e-05 0)
(0.995144 0.000266079 0)
(0.99722 6.17035e-05 0)
(0.99494 0.000281127 0)
(0.997055 7.37469e-05 0)
(0.994715 0.0002983 0)
(0.996869 8.80185e-05 0)
(0.994465 0.000318345 0)
(0.996657 0.000105527 0)
(0.994182 0.000342703 0)
(0.99641 0.000128357 0)
(0.993856 0.000374533 0)
(0.996115 0.000161325 0)
(0.993468 0.000421266 0)
(0.995751 0.00021562 0)
(0.992998 0.000499347 0)
(0.995295 0.000314317 0)
(0.992421 0.000639773 0)
(0.994727 0.000496616 0)
(0.999735 8.44384e-05 0)
(1.00028 -9.82713e-05 0)
(0.99976 8.36824e-05 0)
(1.00028 -9.26648e-05 0)
(0.999767 8.88538e-05 0)
(1.00027 -8.82191e-05 0)
(0.999763 9.04631e-05 0)
(1.00025 -8.71239e-05 0)
(0.999753 9.00016e-05 0)
(1.00023 -8.69044e-05 0)
(0.999742 8.94482e-05 0)
(1.00021 -8.66199e-05 0)
(0.999734 8.89531e-05 0)
(1.00019 -8.64354e-05 0)
(0.99973 8.82464e-05 0)
(1.00018 -8.66247e-05 0)
(0.999732 8.71713e-05 0)
(1.00018 -8.72804e-05 0)
(0.999739 8.57114e-05 0)
(1.00017 -8.83015e-05 0)
(0.999749 8.40587e-05 0)
(1.00017 -8.94017e-05 0)
(0.99976 8.25454e-05 0)
(1.00018 -9.02465e-05 0)
(0.999773 8.14862e-05 0)
(1.00018 -9.05771e-05 0)
(0.999789 8.10979e-05 0)
(1.00019 -9.01715e-05 0)
(0.999807 8.15428e-05 0)
(1.00019 -8.89587e-05 0)
(0.999822 8.29167e-05 0)
(1.0002 -8.68721e-05 0)
(0.999831 8.51115e-05 0)
(1.00019 -8.41788e-05 0)
(0.999829 8.77422e-05 0)
(1.00018 -8.1337e-05 0)
(0.999819 9.03138e-05 0)
(1.00015 -7.88211e-05 0)
(0.999803 9.24074e-05 0)
(1.00013 -7.69775e-05 0)
(0.999782 9.37463e-05 0)
(1.0001 -7.60134e-05 0)
(0.999759 9.42332e-05 0)
(1.00007 -7.59101e-05 0)
(0.999735 9.39827e-05 0)
(1.00003 -7.64235e-05 0)
(0.999712 9.32735e-05 0)
(1.00001 -7.73183e-05 0)
(0.999694 9.23389e-05 0)
(0.999985 -7.83318e-05 0)
(0.999682 9.14854e-05 0)
(0.999971 -7.91232e-05 0)
(0.999677 9.10524e-05 0)
(0.999963 -7.93708e-05 0)
(0.999677 9.13052e-05 0)
(0.999958 -7.88579e-05 0)
(0.999678 9.24526e-05 0)
(0.999952 -7.74287e-05 0)
(0.999676 9.45002e-05 0)
(0.999942 -7.53016e-05 0)
(0.999667 9.70296e-05 0)
(0.999925 -7.29862e-05 0)
(0.999651 9.9515e-05 0)
(0.9999 -7.10019e-05 0)
(0.999628 0.000101466 0)
(0.999869 -6.97641e-05 0)
(0.999598 0.000102613 0)
(0.999833 -6.93769e-05 0)
(0.999566 0.000103002 0)
(0.999797 -6.96523e-05 0)
(0.999535 0.000102948 0)
(0.999763 -7.0209e-05 0)
(0.999508 0.000102808 0)
(0.999734 -7.07365e-05 0)
(0.999486 0.000102869 0)
(0.999712 -7.09494e-05 0)
(0.99947 0.000103428 0)
(0.999694 -7.05723e-05 0)
(0.999457 0.000104713 0)
(0.999678 -6.94603e-05 0)
(0.999444 0.000106744 0)
(0.99966 -6.77364e-05 0)
(0.999428 0.000109259 0)
(0.999637 -6.57534e-05 0)
(0.999405 0.000111872 0)
(0.999608 -6.39104e-05 0)
(0.999377 0.000114209 0)
(0.999573 -6.25132e-05 0)
(0.999342 0.000116058 0)
(0.999534 -6.16833e-05 0)
(0.999305 0.000117397 0)
(0.999493 -6.13308e-05 0)
(0.999267 0.000118421 0)
(0.999454 -6.11899e-05 0)
(0.999232 0.000119432 0)
(0.999418 -6.09608e-05 0)
(0.999201 0.00012071 0)
(0.999386 -6.03939e-05 0)
(0.999174 0.000122468 0)
(0.999357 -5.93308e-05 0)
(0.999148 0.000124798 0)
(0.999328 -5.77605e-05 0)
(0.999122 0.000127621 0)
(0.999297 -5.58433e-05 0)
(0.999092 0.000130724 0)
(0.999262 -5.38204e-05 0)
(0.999057 0.000133867 0)
(0.999222 -5.19193e-05 0)
(0.999017 0.000136862 0)
(0.999177 -5.02784e-05 0)
(0.998974 0.000139631 0)
(0.99913 -4.89092e-05 0)
(0.998929 0.000142231 0)
(0.999082 -4.76968e-05 0)
(0.998884 0.000144828 0)
(0.999036 -4.64495e-05 0)
(0.998842 0.000147622 0)
(0.998992 -4.49881e-05 0)
(0.998801 0.000150764 0)
(0.998949 -4.31961e-05 0)
(0.998761 0.000154333 0)
(0.998906 -4.10429e-05 0)
(0.99872 0.000158316 0)
(0.998861 -3.85866e-05 0)
(0.998676 0.000162625 0)
(0.998813 -3.59384e-05 0)
(0.998629 0.000167144 0)
(0.998762 -3.32139e-05 0)
(0.998579 0.000171775 0)
(0.998707 -3.04911e-05 0)
(0.998525 0.000176475 0)
(0.998649 -2.77834e-05 0)
(0.998469 0.000181267 0)
(0.99859 -2.50363e-05 0)
(0.998413 0.000186239 0)
(0.99853 -2.2146e-05 0)
(0.998356 0.00019151 0)
(0.99847 -1.89965e-05 0)
(0.998299 0.000197191 0)
(0.99841 -1.54971e-05 0)
(0.998241 0.000203355 0)
(0.998349 -1.16019e-05 0)
(0.998181 0.000210032 0)
(0.998285 -7.30693e-06 0)
(0.998119 0.000217214 0)
(0.998218 -2.63179e-06 0)
(0.998054 0.000224886 0)
(0.998148 2.40397e-06 0)
(0.997985 0.000233041 0)
(0.998074 7.80026e-06 0)
(0.997913 0.000241699 0)
(0.997998 1.35822e-05 0)
(0.997838 0.000250898 0)
(0.997918 1.97893e-05 0)
(0.99776 0.000260688 0)
(0.997836 2.64584e-05 0)
(0.997681 0.000271109 0)
(0.997752 3.3635e-05 0)
(0.997598 0.00028223 0)
(0.997665 4.13968e-05 0)
(0.997513 0.000294151 0)
(0.997575 4.98454e-05 0)
(0.997424 0.000306984 0)
(0.99748 5.90778e-05 0)
(0.997331 0.000320822 0)
(0.997381 6.91612e-05 0)
(0.997234 0.000335721 0)
(0.997277 8.01173e-05 0)
(0.99713 0.000351701 0)
(0.997168 9.197e-05 0)
(0.997022 0.000368828 0)
(0.997052 0.000104824 0)
(0.996907 0.000387273 0)
(0.99693 0.000118893 0)
(0.996785 0.000407313 0)
(0.9968 0.000134488 0)
(0.996655 0.000429312 0)
(0.996662 0.000151996 0)
(0.996517 0.000453708 0)
(0.996515 0.000171881 0)
(0.996369 0.000481023 0)
(0.996356 0.000194705 0)
(0.996208 0.00051191 0)
(0.996183 0.000221201 0)
(0.996033 0.000547251 0)
(0.995995 0.000252416 0)
(0.99584 0.000588363 0)
(0.995786 0.000290013 0)
(0.995625 0.000637472 0)
(0.995553 0.000336996 0)
(0.995383 0.000698788 0)
(0.99529 0.000399265 0)
(0.995107 0.000780649 0)
(0.994991 0.000488388 0)
(0.994795 0.00089893 0)
(0.994654 0.000625597 0)
(0.994448 0.0010814 0)
(0.994286 0.000846067 0)
(0.994077 0.00137117 0)
(0.993901 0.00120045 0)
(0.999923 6.71264e-05 0)
(1.00009 -7.32083e-05 0)
(0.99995 6.70286e-05 0)
(1.0001 -6.89064e-05 0)
(0.999955 7.01688e-05 0)
(1.00009 -6.53614e-05 0)
(0.999948 7.10788e-05 0)
(1.00008 -6.39776e-05 0)
(0.999936 7.06661e-05 0)
(1.00006 -6.31353e-05 0)
(0.999924 7.01734e-05 0)
(1.00004 -6.2374e-05 0)
(0.999914 6.94559e-05 0)
(1.00002 -6.21265e-05 0)
(0.999909 6.8028e-05 0)
(1.00001 -6.27436e-05 0)
(0.99991 6.57428e-05 0)
(1.00001 -6.42124e-05 0)
(0.999916 6.27743e-05 0)
(1 -6.62091e-05 0)
(0.999925 5.95716e-05 0)
(1 -6.81926e-05 0)
(0.999935 5.67198e-05 0)
(1.00001 -6.95956e-05 0)
(0.999947 5.47531e-05 0)
(1.00001 -6.99087e-05 0)
(0.999963 5.41675e-05 0)
(1.00002 -6.87084e-05 0)
(0.99998 5.52265e-05 0)
(1.00003 -6.58714e-05 0)
(0.999995 5.79446e-05 0)
(1.00003 -6.15574e-05 0)
(1 6.19552e-05 0)
(1.00003 -5.6324e-05 0)
(1 6.65385e-05 0)
(1.00001 -5.09938e-05 0)
(0.99999 7.08373e-05 0)
(0.999993 -4.63838e-05 0)
(0.999972 7.41215e-05 0)
(0.999966 -4.31105e-05 0)
(0.99995 7.59194e-05 0)
(0.999937 -4.14995e-05 0)
(0.999926 7.60401e-05 0)
(0.999906 -4.15675e-05 0)
(0.9999 7.46568e-05 0)
(0.999876 -4.29611e-05 0)
(0.999876 7.22504e-05 0)
(0.999849 -4.513e-05 0)
(0.999857 6.94495e-05 0)
(0.999829 -4.7361e-05 0)
(0.999844 6.69984e-05 0)
(0.999816 -4.88881e-05 0)
(0.999838 6.56176e-05 0)
(0.99981 -4.9099e-05 0)
(0.999838 6.58032e-05 0)
(0.999807 -4.76554e-05 0)
(0.999838 6.77384e-05 0)
(0.999803 -4.45373e-05 0)
(0.999834 7.11814e-05 0)
(0.999794 -4.02785e-05 0)
(0.999824 7.53716e-05 0)
(0.999778 -3.57731e-05 0)
(0.999806 7.93487e-05 0)
(0.999755 -3.19702e-05 0)
(0.999781 8.22499e-05 0)
(0.999725 -2.9583e-05 0)
(0.999749 8.35655e-05 0)
(0.99969 -2.88665e-05 0)
(0.999715 8.33267e-05 0)
(0.999655 -2.94967e-05 0)
(0.999682 8.21151e-05 0)
(0.999623 -3.07291e-05 0)
(0.999653 8.07157e-05 0)
(0.999596 -3.18059e-05 0)
(0.99963 7.98282e-05 0)
(0.999576 -3.20834e-05 0)
(0.999612 8.00351e-05 0)
(0.99956 -3.10848e-05 0)
(0.999598 8.16651e-05 0)
(0.999546 -2.86691e-05 0)
(0.999583 8.46252e-05 0)
(0.999531 -2.51718e-05 0)
(0.999565 8.83938e-05 0)
(0.99951 -2.12386e-05 0)
(0.999541 9.22498e-05 0)
(0.999483 -1.7605e-05 0)
(0.99951 9.55037e-05 0)
(0.99945 -1.48709e-05 0)
(0.999473 9.77015e-05 0)
(0.999412 -1.32871e-05 0)
(0.999433 9.88264e-05 0)
(0.999372 -1.26407e-05 0)
(0.999394 9.92835e-05 0)
(0.999335 -1.23929e-05 0)
(0.999357 9.96699e-05 0)
(0.999301 -1.19421e-05 0)
(0.999324 0.000100559 0)
(0.999272 -1.07788e-05 0)
(0.999295 0.000102365 0)
(0.999245 -8.61936e-06 0)
(0.999268 0.000105215 0)
(0.999219 -5.50605e-06 0)
(0.99924 0.000108911 0)
(0.99919 -1.76783e-06 0)
(0.999208 0.000113032 0)
(0.999157 2.11985e-06 0)
(0.999171 0.000117094 0)
(0.999119 5.71473e-06 0)
(0.999129 0.000120735 0)
(0.999076 8.75818e-06 0)
(0.999083 0.000123822 0)
(0.999031 1.12486e-05 0)
(0.999036 0.000126484 0)
(0.998985 1.34347e-05 0)
(0.99899 0.000129053 0)
(0.998941 1.56866e-05 0)
(0.998945 0.000131904 0)
(0.998899 1.83483e-05 0)
(0.998903 0.000135327 0)
(0.998858 2.16363e-05 0)
(0.998861 0.000139453 0)
(0.998817 2.55885e-05 0)
(0.998818 0.000144234 0)
(0.998775 3.00753e-05 0)
(0.998773 0.000149478 0)
(0.998729 3.48673e-05 0)
(0.998724 0.000154945 0)
(0.99868 3.97295e-05 0)
(0.998672 0.000160431 0)
(0.998627 4.45101e-05 0)
(0.998616 0.00016585 0)
(0.998571 4.91911e-05 0)
(0.998558 0.000171255 0)
(0.998514 5.38876e-05 0)
(0.9985 0.000176814 0)
(0.998457 5.88002e-05 0)
(0.998441 0.000182744 0)
(0.998399 6.41395e-05 0)
(0.998383 0.000189235 0)
(0.998341 7.00585e-05 0)
(0.998323 0.000196399 0)
(0.998282 7.66189e-05 0)
(0.998262 0.000204254 0)
(0.998221 8.37966e-05 0)
(0.998199 0.000212746 0)
(0.998157 9.15186e-05 0)
(0.998132 0.000221799 0)
(0.998089 9.9711e-05 0)
(0.998061 0.000231358 0)
(0.998017 0.00010834 0)
(0.997988 0.00024142 0)
(0.997943 0.000117435 0)
(0.997911 0.00025205 0)
(0.997866 0.000127088 0)
(0.997832 0.000263369 0)
(0.997787 0.000137438 0)
(0.997751 0.000275535 0)
(0.997706 0.000148643 0)
(0.997668 0.000288703 0)
(0.997622 0.000160843 0)
(0.997581 0.000303 0)
(0.997535 0.000174147 0)
(0.997492 0.00031853 0)
(0.997443 0.000188649 0)
(0.997398 0.00033538 0)
(0.997348 0.000204422 0)
(0.997299 0.000353627 0)
(0.997247 0.000221548 0)
(0.997195 0.000373372 0)
(0.997141 0.000240153 0)
(0.997085 0.000394791 0)
(0.997029 0.000260458 0)
(0.99697 0.000418164 0)
(0.996911 0.000282803 0)
(0.996848 0.000443897 0)
(0.996786 0.000307643 0)
(0.996719 0.000472509 0)
(0.996654 0.000335551 0)
(0.996581 0.000504641 0)
(0.996512 0.000367234 0)
(0.996434 0.000541089 0)
(0.996361 0.000403589 0)
(0.996276 0.000582901 0)
(0.996197 0.000445846 0)
(0.996105 0.000631561 0)
(0.996019 0.000495818 0)
(0.995918 0.00068935 0)
(0.995824 0.000556393 0)
(0.995714 0.000759982 0)
(0.99561 0.000632352 0)
(0.99549 0.000849609 0)
(0.995378 0.000731484 0)
(0.995248 0.000967904 0)
(0.995128 0.000865443 0)
(0.994991 0.00112844 0)
(0.994867 0.00104938 0)
(0.994727 0.00134738 0)
(0.994603 0.00129969 0)
(0.994466 0.0016403 0)
(0.994348 0.00163008 0)
(0.999974 4.94441e-05 0)
(1.00004 -4.04699e-05 0)
(0.999999 5.09033e-05 0)
(1.00006 -4.05869e-05 0)
(1 4.85205e-05 0)
(1.00005 -4.11321e-05 0)
(0.999992 4.72947e-05 0)
(1.00003 -4.0231e-05 0)
(0.999979 4.7277e-05 0)
(1.00002 -3.85827e-05 0)
(0.999966 4.7526e-05 0)
(0.999998 -3.72175e-05 0)
(0.999954 4.70435e-05 0)
(0.999983 -3.70255e-05 0)
(0.999947 4.51416e-05 0)
(0.999973 -3.8372e-05 0)
(0.999947 4.18002e-05 0)
(0.999969 -4.10059e-05 0)
(0.999952 3.74883e-05 0)
(0.999969 -4.42983e-05 0)
(0.99996 3.29543e-05 0)
(0.99997 -4.74256e-05 0)
(0.99997 2.90602e-05 0)
(0.999973 -4.95376e-05 0)
(0.999982 2.66284e-05 0)
(0.999979 -4.98173e-05 0)
(0.999998 2.64287e-05 0)
(0.999988 -4.76638e-05 0)
(1.00002 2.88113e-05 0)
(0.999997 -4.3024e-05 0)
(1.00003 3.35488e-05 0)
(1 -3.63936e-05 0)
(1.00004 3.99281e-05 0)
(0.999998 -2.86705e-05 0)
(1.00004 4.68788e-05 0)
(0.999984 -2.10469e-05 0)
(1.00003 5.31871e-05 0)
(0.999962 -1.46641e-05 0)
(1.00001 5.78208e-05 0)
(0.999936 -1.04105e-05 0)
(0.999984 6.00802e-05 0)
(0.999906 -8.7498e-06 0)
(0.999959 5.97502e-05 0)
(0.999874 -9.64085e-06 0)
(0.999933 5.71555e-05 0)
(0.999844 -1.25067e-05 0)
(0.999908 5.30409e-05 0)
(0.999817 -1.64462e-05 0)
(0.999888 4.84652e-05 0)
(0.999796 -2.02676e-05 0)
(0.999876 4.46882e-05 0)
(0.999784 -2.27165e-05 0)
(0.999871 4.28489e-05 0)
(0.999779 -2.28535e-05 0)
(0.999871 4.36406e-05 0)
(0.999777 -2.02761e-05 0)
(0.999871 4.71093e-05 0)
(0.999774 -1.531e-05 0)
(0.999868 5.2585e-05 0)
(0.999766 -8.89753e-06 0)
(0.999858 5.89239e-05 0)
(0.99975 -2.34931e-06 0)
(0.99984 6.47124e-05 0)
(0.999726 2.94961e-06 0)
(0.999813 6.87047e-05 0)
(0.999695 6.00059e-06 0)
(0.999781 7.02243e-05 0)
(0.99966 6.51788e-06 0)
(0.999746 6.94246e-05 0)
(0.999625 5.07503e-06 0)
(0.999712 6.71963e-05 0)
(0.999593 2.7686e-06 0)
(0.999682 6.47413e-05 0)
(0.999567 8.21275e-07 0)
(0.999659 6.32316e-05 0)
(0.999548 2.90967e-07 0)
(0.999642 6.3553e-05 0)
(0.999533 1.84408e-06 0)
(0.999628 6.6083e-05 0)
(0.999521 5.51099e-06 0)
(0.999614 7.05015e-05 0)
(0.999506 1.06765e-05 0)
(0.999595 7.59797e-05 0)
(0.999486 1.63523e-05 0)
(0.99957 8.14309e-05 0)
(0.999459 2.14429e-05 0)
(0.999538 8.58354e-05 0)
(0.999425 2.50875e-05 0)
(0.9995 8.85744e-05 0)
(0.999387 2.69877e-05 0)
(0.999459 8.97073e-05 0)
(0.999348 2.7535e-05 0)
(0.999419 8.98811e-05 0)
(0.999311 2.75462e-05 0)
(0.999382 9.00019e-05 0)
(0.999278 2.79459e-05 0)
(0.999349 9.09481e-05 0)
(0.99925 2.95e-05 0)
(0.99932 9.33095e-05 0)
(0.999224 3.25739e-05 0)
(0.999293 9.71967e-05 0)
(0.999199 3.70226e-05 0)
(0.999265 0.000102253 0)
(0.999171 4.23207e-05 0)
(0.999232 0.000107829 0)
(0.999138 4.7752e-05 0)
(0.999194 0.000113205 0)
(0.9991 5.26635e-05 0)
(0.999152 0.000117853 0)
(0.999058 5.66987e-05 0)
(0.999105 0.00012162 0)
(0.999012 5.99116e-05 0)
(0.999058 0.000124752 0)
(0.998967 6.27062e-05 0)
(0.999011 0.000127757 0)
(0.998924 6.56375e-05 0)
(0.998966 0.000131188 0)
(0.998883 6.92135e-05 0)
(0.998924 0.000135466 0)
(0.998843 7.37329e-05 0)
(0.998882 0.000140752 0)
(0.998803 7.92139e-05 0)
(0.998839 0.000146935 0)
(0.998762 8.54354e-05 0)
(0.998794 0.00015371 0)
(0.998717 9.20402e-05 0)
(0.998745 0.000160704 0)
(0.998668 9.86769e-05 0)
(0.998692 0.000167623 0)
(0.998615 0.000105132 0)
(0.998636 0.000174356 0)
(0.99856 0.000111405 0)
(0.998578 0.000181006 0)
(0.998503 0.00011769 0)
(0.998519 0.00018784 0)
(0.998447 0.000124293 0)
(0.998461 0.000195175 0)
(0.99839 0.000131516 0)
(0.998402 0.000203274 0)
(0.998333 0.00013956 0)
(0.998343 0.000212272 0)
(0.998275 0.00014849 0)
(0.998282 0.000222165 0)
(0.998215 0.000158243 0)
(0.998219 0.00023285 0)
(0.998152 0.000168689 0)
(0.998152 0.000244194 0)
(0.998085 0.000179709 0)
(0.998082 0.000256107 0)
(0.998014 0.000191252 0)
(0.998008 0.000268591 0)
(0.997941 0.000203375 0)
(0.997932 0.000281756 0)
(0.997865 0.00021623 0)
(0.997854 0.000295791 0)
(0.997788 0.000230029 0)
(0.997774 0.000310923 0)
(0.997708 0.000244997 0)
(0.997691 0.000327362 0)
(0.997625 0.000261318 0)
(0.997606 0.000345271 0)
(0.997539 0.000279128 0)
(0.997517 0.000364764 0)
(0.99745 0.000298525 0)
(0.997424 0.000385936 0)
(0.997356 0.000319605 0)
(0.997327 0.000408898 0)
(0.997258 0.000342503 0)
(0.997225 0.000433824 0)
(0.997154 0.000367435 0)
(0.997117 0.000460985 0)
(0.997045 0.000394728 0)
(0.997004 0.000490776 0)
(0.99693 0.000424841 0)
(0.996885 0.000523724 0)
(0.996809 0.000458368 0)
(0.99676 0.000560501 0)
(0.996681 0.000496055 0)
(0.996627 0.00060194 0)
(0.996546 0.000538836 0)
(0.996486 0.000649106 0)
(0.996401 0.000587929 0)
(0.996336 0.000703425 0)
(0.996247 0.00064502 0)
(0.996175 0.000766921 0)
(0.996081 0.00071255 0)
(0.996003 0.000842558 0)
(0.995904 0.000794101 0)
(0.995819 0.000934632 0)
(0.995716 0.000894727 0)
(0.995625 0.00104895 0)
(0.995519 0.00102091 0)
(0.995425 0.00119254 0)
(0.995317 0.00117998 0)
(0.995222 0.00137274 0)
(0.995117 0.00137896 0)
(0.995024 0.0015959 0)
(0.994923 0.00162315 0)
(0.994835 0.0018659 0)
(0.994741 0.00191459 0)
(0.999981 3.43875e-05 0)
(1.00003 -1.51525e-05 0)
(1 3.84905e-05 0)
(1.00005 -1.77161e-05 0)
(1 3.22307e-05 0)
(1.00004 -2.22909e-05 0)
(0.999992 2.85829e-05 0)
(1.00003 -2.26725e-05 0)
(0.999978 2.87963e-05 0)
(1.00001 -2.04453e-05 0)
(0.999963 3.01235e-05 0)
(0.999994 -1.84771e-05 0)
(0.99995 3.01756e-05 0)
(0.999979 -1.84534e-05 0)
(0.999942 2.79704e-05 0)
(0.999969 -2.07152e-05 0)
(0.999941 2.37043e-05 0)
(0.999965 -2.47087e-05 0)
(0.999946 1.81835e-05 0)
(0.999965 -2.94582e-05 0)
(0.999954 1.24794e-05 0)
(0.999967 -3.38429e-05 0)
(0.999964 7.76331e-06 0)
(0.999971 -3.66706e-05 0)
(0.999976 5.24793e-06 0)
(0.999978 -3.67742e-05 0)
(0.999993 5.91676e-06 0)
(0.999988 -3.34979e-05 0)
(1.00001 1.00706e-05 0)
(0.999998 -2.68967e-05 0)
(1.00003 1.72502e-05 0)
(1 -1.78284e-05 0)
(1.00004 2.63298e-05 0)
(0.999999 -7.61107e-06 0)
(1.00003 3.58306e-05 0)
(0.999985 2.15718e-06 0)
(1.00002 4.41431e-05 0)
(0.999962 9.97855e-06 0)
(1 4.9963e-05 0)
(0.999934 1.47848e-05 0)
(0.99998 5.24863e-05 0)
(0.999903 1.6086e-05 0)
(0.999954 5.1555e-05 0)
(0.999871 1.4059e-05 0)
(0.999927 4.76828e-05 0)
(0.999839 9.51519e-06 0)
(0.999902 4.19048e-05 0)
(0.999811 3.72911e-06 0)
(0.999883 3.57315e-05 0)
(0.999791 -1.61374e-06 0)
(0.999872 3.09479e-05 0)
(0.99978 -4.76688e-06 0)
(0.999868 2.91001e-05 0)
(0.999775 -4.50137e-06 0)
(0.999869 3.0975e-05 0)
(0.999774 -5.20805e-07 0)
(0.999871 3.63611e-05 0)
(0.999772 6.46796e-06 0)
(0.999869 4.41352e-05 0)
(0.999763 1.50516e-05 0)
(0.99986 5.26649e-05 0)
(0.999747 2.34481e-05 0)
(0.999841 6.01167e-05 0)
(0.999722 2.99062e-05 0)
(0.999813 6.49622e-05 0)
(0.99969 3.32579e-05 0)
(0.99978 6.64957e-05 0)
(0.999654 3.33298e-05 0)
(0.999744 6.5077e-05 0)
(0.999617 3.09509e-05 0)
(0.99971 6.18918e-05 0)
(0.999585 2.75672e-05 0)
(0.999681 5.8561e-05 0)
(0.999559 2.48677e-05 0)
(0.999659 5.67145e-05 0)
(0.999541 2.43004e-05 0)
(0.999643 5.75071e-05 0)
(0.999527 2.66375e-05 0)
(0.99963 6.12565e-05 0)
(0.999516 3.1718e-05 0)
(0.999617 6.73814e-05 0)
(0.999501 3.86272e-05 0)
(0.999599 7.4695e-05 0)
(0.999481 4.59865e-05 0)
(0.999574 8.17284e-05 0)
(0.999453 5.23469e-05 0)
(0.999541 8.71755e-05 0)
(0.999419 5.66758e-05 0)
(0.999502 9.0377e-05 0)
(0.99938 5.87402e-05 0)
(0.99946 9.15299e-05 0)
(0.99934 5.91225e-05 0)
(0.99942 9.15177e-05 0)
(0.999303 5.89158e-05 0)
(0.999383 9.15595e-05 0)
(0.999271 5.93678e-05 0)
(0.999351 9.28223e-05 0)
(0.999243 6.14633e-05 0)
(0.999323 9.60223e-05 0)
(0.999218 6.55898e-05 0)
(0.999297 0.0001012 0)
(0.999194 7.14717e-05 0)
(0.999269 0.000107813 0)
(0.999166 7.83573e-05 0)
(0.999237 0.000114966 0)
(0.999134 8.52857e-05 0)
(0.999199 0.000121717 0)
(0.999095 9.14196e-05 0)
(0.999156 0.000127413 0)
(0.999052 9.63516e-05 0)
(0.999109 0.000131923 0)
(0.999006 0.000100227 0)
(0.999061 0.000135633 0)
(0.998961 0.000103614 0)
(0.999014 0.000139233 0)
(0.998918 0.000107261 0)
(0.99897 0.00014346 0)
(0.998878 0.000111827 0)
(0.998928 0.000148844 0)
(0.998839 0.00011767 0)
(0.998887 0.000155549 0)
(0.9988 0.00012477 0)
(0.998845 0.000163385 0)
(0.998759 0.00013279 0)
(0.9988 0.000171912 0)
(0.998714 0.000141236 0)
(0.998751 0.000180627 0)
(0.998665 0.000149642 0)
(0.998698 0.000189151 0)
(0.998613 0.000157753 0)
(0.998642 0.000197373 0)
(0.998558 0.000165604 0)
(0.998584 0.000205464 0)
(0.998502 0.000173483 0)
(0.998526 0.000213798 0)
(0.998445 0.000181807 0)
(0.998468 0.000222796 0)
(0.99839 0.000190966 0)
(0.99841 0.000232787 0)
(0.998334 0.000201204 0)
(0.998352 0.000243922 0)
(0.998277 0.000212574 0)
(0.998292 0.000256163 0)
(0.998218 0.000224966 0)
(0.998229 0.000269348 0)
(0.998155 0.000238188 0)
(0.998163 0.000283287 0)
(0.998089 0.000252076 0)
(0.998093 0.000297864 0)
(0.998019 0.000266574 0)
(0.99802 0.000313094 0)
(0.997947 0.000281772 0)
(0.997945 0.000329135 0)
(0.997872 0.000297884 0)
(0.997868 0.000346247 0)
(0.997796 0.000315192 0)
(0.997789 0.000364721 0)
(0.997718 0.000333979 0)
(0.997708 0.000384814 0)
(0.997637 0.00035447 0)
(0.997624 0.000406721 0)
(0.997554 0.000376823 0)
(0.997537 0.00043057 0)
(0.997466 0.000401148 0)
(0.997447 0.000456469 0)
(0.997375 0.000427562 0)
(0.997352 0.000484562 0)
(0.997279 0.000456246 0)
(0.997252 0.00051508 0)
(0.997178 0.000487487 0)
(0.997148 0.000548376 0)
(0.997073 0.000521706 0)
(0.997038 0.000584943 0)
(0.996962 0.000559467 0)
(0.996924 0.000625422 0)
(0.996847 0.000601485 0)
(0.996804 0.00067061 0)
(0.996725 0.000648647 0)
(0.996678 0.000721496 0)
(0.996597 0.00070206 0)
(0.996546 0.000779338 0)
(0.996463 0.000763155 0)
(0.996406 0.000845782 0)
(0.99632 0.000833829 0)
(0.996259 0.000923013 0)
(0.996171 0.000916587 0)
(0.996106 0.00101388 0)
(0.996016 0.0010146 0)
(0.995946 0.00112183 0)
(0.995856 0.00113156 0)
(0.995784 0.00125072 0)
(0.995694 0.00127131 0)
(0.995622 0.00140429 0)
(0.995534 0.00143739 0)
(0.995464 0.00158571 0)
(0.99538 0.00163246 0)
(0.995313 0.001797 0)
(0.995237 0.00185779 0)
(0.995174 0.00203859 0)
(0.995105 0.0021129 0)
(0.999979 2.34356e-05 0)
(1.00003 -1.08368e-06 0)
(0.99999 3.07148e-05 0)
(1.00004 -2.16225e-06 0)
(0.999989 2.47737e-05 0)
(1.00004 -8.0772e-06 0)
(0.999981 1.9694e-05 0)
(1.00003 -1.00805e-05 0)
(0.999967 1.91574e-05 0)
(1.00001 -8.47438e-06 0)
(0.999952 2.05342e-05 0)
(0.999996 -6.70249e-06 0)
(0.999937 2.06099e-05 0)
(0.99998 -7.20706e-06 0)
(0.999928 1.79135e-05 0)
(0.99997 -1.05028e-05 0)
(0.999925 1.26792e-05 0)
(0.999967 -1.58913e-05 0)
(0.999929 5.94755e-06 0)
(0.999967 -2.21044e-05 0)
(0.999936 -8.73843e-07 0)
(0.99997 -2.7665e-05 0)
(0.999946 -6.25091e-06 0)
(0.999975 -3.10025e-05 0)
(0.999959 -8.61631e-06 0)
(0.999983 -3.06989e-05 0)
(0.999977 -6.85868e-06 0)
(0.999995 -2.60782e-05 0)
(0.999996 -7.46492e-07 0)
(1.00001 -1.73483e-05 0)
(1.00001 9.01964e-06 0)
(1.00001 -5.70154e-06 0)
(1.00002 2.08847e-05 0)
(1.00001 7.03591e-06 0)
(1.00002 3.28581e-05 0)
(0.999994 1.88153e-05 0)
(1.00001 4.29498e-05 0)
(0.999971 2.78347e-05 0)
(0.999987 4.96451e-05 0)
(0.999941 3.29265e-05 0)
(0.999962 5.21547e-05 0)
(0.999909 3.3674e-05 0)
(0.999935 5.0427e-05 0)
(0.999875 3.04179e-05 0)
(0.999907 4.51759e-05 0)
(0.999842 2.42023e-05 0)
(0.999882 3.7774e-05 0)
(0.999814 1.67303e-05 0)
(0.999863 3.02106e-05 0)
(0.999795 1.01974e-05 0)
(0.999853 2.47449e-05 0)
(0.999784 6.74059e-06 0)
(0.999851 2.32107e-05 0)
(0.999781 7.74388e-06 0)
(0.999854 2.63775e-05 0)
(0.999782 1.33233e-05 0)
(0.999858 3.37572e-05 0)
(0.99978 2.24245e-05 0)
(0.999856 4.37922e-05 0)
(0.999772 3.31193e-05 0)
(0.999847 5.43176e-05 0)
(0.999755 4.31477e-05 0)
(0.999827 6.31173e-05 0)
(0.999729 5.04939e-05 0)
(0.999799 6.85197e-05 0)
(0.999694 5.3954e-05 0)
(0.999764 6.98848e-05 0)
(0.999656 5.35053e-05 0)
(0.999727 6.77714e-05 0)
(0.999619 5.02108e-05 0)
(0.999693 6.36769e-05 0)
(0.999586 4.59145e-05 0)
(0.999664 5.96603e-05 0)
(0.999561 4.27378e-05 0)
(0.999644 5.77357e-05 0)
(0.999544 4.24222e-05 0)
(0.99963 5.92231e-05 0)
(0.999532 4.57548e-05 0)
(0.999619 6.43285e-05 0)
(0.999521 5.23937e-05 0)
(0.999607 7.2226e-05 0)
(0.999507 6.10941e-05 0)
(0.99959 8.13388e-05 0)
(0.999487 7.00718e-05 0)
(0.999564 8.98191e-05 0)
(0.999458 7.75726e-05 0)
(0.999531 9.61602e-05 0)
(0.999421 8.24723e-05 0)
(0.999491 9.97156e-05 0)
(0.999381 8.4641e-05 0)
(0.999448 0.000100844 0)
(0.99934 8.48625e-05 0)
(0.999408 0.000100682 0)
(0.999303 8.4535e-05 0)
(0.999372 0.00010077 0)
(0.999271 8.52038e-05 0)
(0.999341 0.000102517 0)
(0.999245 8.80183e-05 0)
(0.999315 0.000106713 0)
(0.999221 9.33554e-05 0)
(0.99929 0.00011332 0)
(0.999198 0.000100796 0)
(0.999263 0.000121589 0)
(0.99917 0.000109338 0)
(0.999231 0.000130359 0)
(0.999137 0.000117766 0)
(0.999193 0.000138471 0)
(0.999098 0.000125089 0)
(0.999149 0.000145192 0)
(0.999054 0.000130891 0)
(0.999102 0.000150446 0)
(0.999008 0.000135425 0)
(0.999053 0.000154767 0)
(0.998962 0.00013944 0)
(0.999007 0.000159047 0)
(0.99892 0.000143884 0)
(0.998964 0.000164197 0)
(0.99888 0.000149555 0)
(0.998924 0.00017084 0)
(0.998842 0.000156855 0)
(0.998884 0.000179134 0)
(0.998804 0.000165703 0)
(0.998843 0.000188785 0)
(0.998764 0.000175632 0)
(0.998798 0.000199203 0)
(0.998719 0.000185992 0)
(0.99875 0.000209745 0)
(0.99867 0.00019621 0)
(0.998696 0.000219966 0)
(0.998617 0.000206007 0)
(0.99864 0.000229769 0)
(0.998562 0.00021547 0)
(0.998582 0.000239411 0)
(0.998506 0.000224995 0)
(0.998525 0.000249382 0)
(0.998451 0.000235114 0)
(0.998468 0.000260208 0)
(0.998396 0.000246305 0)
(0.998411 0.000272282 0)
(0.998342 0.000258845 0)
(0.998354 0.000285756 0)
(0.998286 0.000272764 0)
(0.998296 0.000300547 0)
(0.998227 0.000287889 0)
(0.998234 0.000316426 0)
(0.998166 0.000303966 0)
(0.998168 0.000333146 0)
(0.9981 0.000320787 0)
(0.9981 0.000350568 0)
(0.998032 0.000338299 0)
(0.998028 0.000368731 0)
(0.997961 0.000356629 0)
(0.997954 0.000387845 0)
(0.997887 0.000376056 0)
(0.997878 0.000408238 0)
(0.997813 0.000396931 0)
(0.997801 0.000430261 0)
(0.997736 0.000419586 0)
(0.997722 0.000454215 0)
(0.997658 0.000444281 0)
(0.997641 0.000480316 0)
(0.997577 0.000471187 0)
(0.997557 0.000508702 0)
(0.997493 0.000500424 0)
(0.997469 0.000539491 0)
(0.997404 0.000532123 0)
(0.997377 0.000572846 0)
(0.997312 0.000566495 0)
(0.997281 0.000609041 0)
(0.997215 0.000603879 0)
(0.99718 0.000648488 0)
(0.997114 0.000644766 0)
(0.997076 0.000691757 0)