/*--------------------------------*- C++ -*----------------------------------*\
| =========                 |                                                 |
| \\      /  F ield         | OpenFOAM: The Open Source CFD Toolbox           |
|  \\    /   O peration     | Version:  v1912                                 |
|   \\  /    A nd           | Website:  www.openfoam.com                      |
|    \\/     M anipulation  |                                                 |
\*---------------------------------------------------------------------------*/
FoamFile
{
    version     2.0;
    format      ascii;
    class       volScalarField;
    location    "1";
    object      p;
}
// * * * * * * * * * * * * * * * * * * * * * * * * * * * * * * * * * * * * * //

dimensions      [0 2 -2 0 0 0 0];


internalField   nonuniform List<scalar> 
12000
(
-1.06787e-08
-1.0823e-05
-1.82002e-05
-2.19037e-05
-2.20471e-05
-1.91174e-05
-1.38298e-05
-7.01895e-06
5.56008e-07
8.24472e-06
1.56022e-05
2.23086e-05
2.81969e-05
3.31658e-05
3.7212e-05
4.0362e-05
4.26985e-05
4.42862e-05
4.51728e-05
4.54202e-05
4.50227e-05
4.40076e-05
4.23389e-05
4.00601e-05
3.71869e-05
3.38515e-05
3.01689e-05
2.63692e-05
2.26354e-05
1.91965e-05
1.62271e-05
1.39427e-05
1.24301e-05
1.18572e-05
1.22721e-05
1.38361e-05
1.65936e-05
2.06999e-05
2.61615e-05
3.30641e-05
4.13138e-05
5.08777e-05
6.15384e-05
7.31553e-05
8.54286e-05
9.8182e-05
0.000111101
0.000124041
0.00013669
0.000148916
0.000160475
0.000171267
0.000181085
0.0001899
0.000197578
0.000204214
0.000209822
0.000214647
0.00021888
0.000222918
0.000227017
0.000231588
0.000236839
0.000243082
0.000250383
0.000258898
0.000268536
0.000279318
0.000291062
0.00030374
0.000317144
0.000331249
0.000345847
0.000360913
0.000376217
0.000391703
0.0004071
0.000422318
0.00043707
0.000451296
0.000464781
0.000477577
0.000489608
0.000501076
0.00051205
0.000522857
0.00053365
0.000544795
0.000556432
0.000568868
0.000582142
0.000596438
0.000611661
0.000627872
0.000644867
0.000662629
0.000680902
0.000699644
0.000718594
0.000737729
0.000756815
0.000775871
0.000794708
0.000813398
0.000831807
0.000850068
0.0008681
0.000886092
0.000904008
0.000922078
0.000940289
0.000958888
0.000977856
0.000997423
0.00101753
0.00103836
0.0010598
0.00108198
0.00110472
0.00112809
0.00115189
0.00117617
0.00120069
0.00122554
0.00125049
0.00127566
0.00130086
0.00132625
0.0013517
0.00137739
0.00140323
0.00142943
0.0014559
0.00148288
0.00151024
0.00153822
0.00156669
0.00159586
0.00162555
0.00165597
0.00168693
0.00171861
0.00175078
0.00178366
0.00181698
0.00185097
0.00188539
0.00192045
0.00195593
0.00199208
0.00202866
0.00206596
0.00210374
0.00214232
0.00218144
0.00222145
0.0022621
0.00230374
0.00234611
0.00238957
0.00243383
0.00247926
0.00252556
0.00257309
0.00262154
0.00267129
0.00272201
0.00277413
0.00282733
0.0028821
0.00293811
0.00299587
0.00305509
0.00311629
0.00317918
0.00324433
0.00331143
0.0033811
0.00345305
0.00352794
0.00360553
0.00368654
0.00377076
0.00385904
0.00395124
0.00404837
0.00415043
0.00425867
0.00437332
0.004496
0.00462733
0.00476947
0.00492362
0.00509272
0.00527869
0.00548526
0.00571478
0.00597108
0.00625552
0.00656977
2.82637e-06
-1.07353e-05
-1.90466e-05
-2.29652e-05
-2.26836e-05
-1.95123e-05
-1.38682e-05
-7.03553e-06
6.72299e-07
8.23997e-06
1.56733e-05
2.22621e-05
2.82355e-05
3.31105e-05
3.72637e-05
4.03436e-05
4.27937e-05
4.43057e-05
4.53097e-05
4.54818e-05
4.51938e-05
4.40912e-05
4.25118e-05
4.01333e-05
3.73308e-05
3.3888e-05
3.02648e-05
2.63547e-05
2.26609e-05
1.91097e-05
1.61841e-05
1.37716e-05
1.22877e-05
1.15802e-05
1.20242e-05
1.34661e-05
1.62714e-05
2.02815e-05
2.58118e-05
3.26468e-05
4.09885e-05
5.05162e-05
6.12918e-05
7.28937e-05
8.52924e-05
9.80289e-05
0.000111065
0.000123965
0.000136705
0.000148888
0.000160523
0.000171261
0.000181149
0.000189899
0.000197637
0.000204194
0.00020984
0.000214569
0.000218815
0.000222736
0.000226829
0.000231279
0.000236527
0.000242665
0.000249988
0.000258428
0.000268118
0.000278858
0.000290683
0.000303339
0.000316838
0.00033093
0.000345626
0.000360677
0.000376072
0.000391532
0.000407001
0.000422172
0.000436976
0.000451134
0.000464652
0.000477361
0.000489405
0.000500768
0.000511739
0.00052243
0.000533215
0.00054425
0.000555894
0.000568242
0.000581547
0.00059578
0.000611055
0.00062722
0.000644281
0.000662009
0.000680354
0.000699062
0.00071808
0.000737171
0.000756312
0.000775306
0.000794178
0.000812786
0.000831213
0.000849377
0.000867414
0.000885297
0.000903211
0.000921167
0.000939378
0.000957867
0.000976844
0.00099631
0.00101644
0.00103718
0.00105865
0.00108074
0.00110352
0.00112681
0.00115065
0.00117484
0.0011994
0.00122415
0.00124912
0.00127417
0.00129938
0.00132464
0.00135008
0.00137563
0.00140145
0.0014275
0.00145395
0.00148076
0.0015081
0.00153592
0.00156436
0.00159336
0.00162302
0.00165327
0.0016842
0.00171569
0.00174782
0.00178049
0.00181376
0.00184752
0.00188186
0.00191667
0.00195205
0.00198791
0.00202438
0.00206136
0.00209903
0.00213728
0.00217631
0.00221601
0.00225657
0.00229789
0.00234015
0.00238325
0.00242736
0.00247238
0.00251847
0.00256555
0.00261377
0.00266303
0.00271352
0.00276515
0.00281811
0.00287235
0.00292808
0.00298526
0.00304411
0.00310461
0.00316703
0.00323134
0.00329782
0.00336649
0.00343765
0.00351135
0.00358793
0.0036675
0.00375046
0.00383697
0.00392753
0.00402242
0.00412223
0.00422739
0.00433866
0.00445661
0.00458214
0.00471586
0.00485854
0.00501043
0.00517171
0.00534177
0.00551975
0.00570384
0.00589223
0.00608264
6.08774e-06
-1.07315e-05
-2.02863e-05
-2.44419e-05
-2.36655e-05
-2.00716e-05
-1.39803e-05
-7.07289e-06
7.42375e-07
8.20126e-06
1.56771e-05
2.21719e-05
2.82395e-05
3.30825e-05
3.73688e-05
4.04452e-05
4.30325e-05
4.45325e-05
4.5656e-05
4.57946e-05
4.55957e-05
4.44278e-05
4.28988e-05
4.04154e-05
3.76251e-05
3.40431e-05
3.04078e-05
2.63372e-05
2.26164e-05
1.8897e-05
1.59327e-05
1.33394e-05
1.18043e-05
1.0918e-05
1.13239e-05
1.26206e-05
1.54261e-05
1.93439e-05
2.4934e-05
3.17425e-05
4.02122e-05
4.97722e-05
6.07281e-05
7.24024e-05
8.50063e-05
9.78269e-05
0.000111059
0.000124019
0.000136917
0.00014912
0.000160865
0.000171574
0.000181518
0.000190189
0.00019793
0.000204358
0.000209954
0.00021451
0.000218675
0.000222387
0.000226378
0.000230616
0.000235785
0.000241763
0.000249069
0.000257423
0.000267167
0.000277896
0.000289843
0.000302546
0.00031621
0.000330377
0.000345253
0.00036038
0.000375937
0.000391438
0.000407018
0.000422168
0.000437017
0.000451092
0.000464591
0.00047716
0.000489132
0.00050031
0.000511177
0.000521666
0.000532351
0.000543212
0.000554801
0.000567033
0.000580349
0.000594535
0.000609881
0.000626052
0.000643228
0.00066099
0.000679462
0.000698202
0.00071733
0.000736423
0.000755632
0.000774579
0.000793466
0.000811977
0.000830373
0.000848397
0.000866371
0.000884091
0.000901927
0.000919717
0.000937858
0.000956201
0.000975134
0.000994487
0.0010146
0.00103527
0.00105676
0.0010788
0.00110162
0.00112487
0.00114875
0.00117289
0.00119747
0.00122214
0.00124711
0.00127205
0.00129721
0.00132233
0.00134769
0.00137307
0.00139879
0.00142465
0.00145099
0.00147762
0.00150486
0.00153249
0.00156084
0.00158966
0.00161924
0.00164931
0.00168014
0.00171145
0.00174348
0.00177595
0.00180909
0.00184262
0.00187681
0.00191135
0.00194654
0.0019821
0.00201835
0.00205501
0.00209242
0.00213033
0.00216907
0.0022084
0.00224864
0.00228955
0.00233146
0.0023741
0.00241782
0.00246233
0.00250799
0.00255451
0.00260224
0.00265089
0.00270083
0.00275179
0.00280414
0.00285761
0.00291262
0.0029689
0.00302688
0.00308631
0.00314764
0.00321065
0.0032758
0.00334288
0.0034124
0.00348415
0.00355868
0.00363581
0.00371615
0.00379954
0.00388665
0.00397736
0.00407236
0.00417154
0.00427554
0.0043841
0.00449766
0.00461565
0.00473817
0.00486418
0.00499335
0.00512415
0.00525579
0.00538636
0.0055149
0.00563957
5.91601e-06
-1.08835e-05
-2.05815e-05
-2.47018e-05
-2.39108e-05
-2.01948e-05
-1.4111e-05
-7.16874e-06
5.62324e-07
8.02761e-06
1.54468e-05
2.20238e-05
2.81286e-05
3.31336e-05
3.75174e-05
4.07738e-05
4.34477e-05
4.50973e-05
4.62609e-05
4.64925e-05
4.62705e-05
4.51272e-05
4.35061e-05
4.0977e-05
3.80311e-05
3.4349e-05
3.05114e-05
2.63076e-05
2.23616e-05
1.84958e-05
1.52961e-05
1.25538e-05
1.07898e-05
9.77174e-06
9.98294e-06
1.11982e-05
1.38856e-05
1.78112e-05
2.33873e-05
3.03129e-05
3.88771e-05
4.86584e-05
5.97952e-05
7.17597e-05
8.45871e-05
9.77156e-05
0.000111157
0.000124383
0.000137429
0.00014981
0.000161608
0.00017239
0.000182278
0.000190911
0.000198489
0.000204778
0.000210123
0.00021447
0.000218325
0.000221791
0.000225463
0.000229485
0.000234402
0.000240257
0.000247426
0.00025578
0.000265519
0.000276372
0.000288426
0.00030135
0.000315196
0.000329636
0.000344717
0.000360111
0.00037584
0.000391538
0.000407193
0.000422423
0.000437223
0.000451258
0.000464592
0.000477012
0.000488724
0.00049968
0.00051024
0.000520496
0.0005309
0.000541589
0.000552987
0.000565153
0.000578389
0.000592619
0.000608002
0.000624318
0.000641604
0.000659557
0.000678158
0.000697079
0.000716299
0.000735509
0.000754726
0.000773698
0.000792502
0.00081095
0.000829182
0.000847076
0.000864831
0.000882385
0.000899984
0.00091761
0.000935536
0.000953752
0.000972521
0.000991806
0.00101183
0.00103248
0.00105394
0.00107602
0.00109883
0.00112214
0.001146
0.00117018
0.00119471
0.00121937
0.00124423
0.00126909
0.00129408
0.00131906
0.0013442
0.00136941
0.00139488
0.00142056
0.00144665
0.00147309
0.00150008
0.00152755
0.00155567
0.00158434
0.00161371
0.00164364
0.00167426
0.00170541
0.00173722
0.0017695
0.00180238
0.00183569
0.00186956
0.00190383
0.00193866
0.0019739
0.00200972
0.00204601
0.00208296
0.00212045
0.00215867
0.00219753
0.00223721
0.00227761
0.00231891
0.00236099
0.00240405
0.00244794
0.00249287
0.00253869
0.0025856
0.00263346
0.00268248
0.00273253
0.00278382
0.00283623
0.00288999
0.002945
0.0030015
0.0030594
0.00311896
0.00318011
0.0032431
0.0033079
0.00337477
0.00344367
0.0035149
0.00358842
0.00366452
0.00374316
0.00382462
0.00390879
0.00399589
0.00408569
0.00417825
0.00427318
0.00437033
0.00446909
0.00456913
0.00466961
0.00477001
0.00486937
0.00496708
0.00506219
0.00515427
0.00524293
2.13043e-06
-1.14882e-05
-1.97152e-05
-2.33859e-05
-2.29212e-05
-1.96185e-05
-1.4054e-05
-7.3986e-06
5.55684e-08
7.49461e-06
1.48801e-05
2.1634e-05
2.78716e-05
3.31669e-05
3.77432e-05
4.12962e-05
4.41278e-05
4.60027e-05
4.72335e-05
4.75833e-05
4.73173e-05
4.61763e-05
4.44014e-05
4.17689e-05
3.85767e-05
3.47097e-05
3.05612e-05
2.61228e-05
2.18354e-05
1.77181e-05
1.41776e-05
1.1197e-05
9.12586e-06
7.91729e-06
7.89273e-06
9.00725e-06
1.15695e-05
1.55254e-05
2.11233e-05
2.82349e-05
3.69819e-05
4.70973e-05
5.8549e-05
7.09441e-05
8.41502e-05
9.77252e-05
0.000111517
0.00012511
0.00013839
0.000151007
0.000162886
0.000173737
0.000183532
0.000192051
0.000199358
0.000205368
0.000210304
0.000214264
0.000217646
0.000220703
0.000223931
0.000227628
0.000232228
0.000237909
0.00024494
0.00025331
0.000263103
0.000274153
0.000286424
0.000299681
0.00031385
0.000328686
0.000344111
0.000359873
0.000375866
0.000391813
0.000407586
0.000422899
0.000437634
0.000451559
0.000464643
0.000476781
0.000488101
0.000498676
0.000508796
0.000518679
0.000528711
0.000539137
0.000550305
0.000562373
0.000575559
0.000589869
0.000605363
0.000621895
0.000639394
0.000657622
0.000676448
0.000695609
0.000714978
0.000734322
0.000753564
0.000772535
0.000791226
0.000809542
0.000827544
0.000845207
0.000862659
0.000879936
0.000897219
0.000914585
0.000932237
0.000950258
0.000968835
0.000988017
0.00100794
0.00102859
0.00105003
0.00107217
0.00109501
0.00111839
0.00114227
0.00116648
0.00119096
0.00121557
0.00124029
0.00126501
0.00128978
0.00131454
0.00133938
0.00136432
0.00138946
0.00141485
0.00144061
0.00146678
0.00149347
0.00152069
0.00154854
0.00157699
0.00160611
0.00163583
0.0016662
0.00169713
0.00172865
0.00176068
0.00179323
0.00182621
0.00185968
0.00189356
0.0019279
0.00196267
0.00199795
0.0020337
0.00207003
0.00210691
0.00214446
0.00218265
0.00222159
0.00226126
0.00230176
0.00234306
0.00238524
0.00242826
0.00247222
0.00251706
0.00256288
0.00260962
0.00265738
0.00270613
0.00275595
0.00280683
0.00285888
0.00291207
0.00296653
0.00302225
0.00307938
0.0031379
0.00319796
0.00325954
0.00332281
0.00338773
0.00345445
0.00352292
0.00359323
0.0036653
0.00373915
0.00381462
0.00389165
0.00396995
0.00404937
0.00412951
0.0042101
0.00429063
0.00437074
0.00444985
0.00452751
0.00460311
0.00467626
0.00474643
0.00481357
0.00487744
-3.64775e-06
-1.28676e-05
-1.86254e-05
-2.12673e-05
-2.09382e-05
-1.82702e-05
-1.35915e-05
-7.62206e-06
-6.95915e-07
6.56383e-06
1.39368e-05
2.0933e-05
2.74519e-05
3.31561e-05
3.80785e-05
4.20271e-05
4.51405e-05
4.72978e-05
4.86654e-05
4.91298e-05
4.88282e-05
4.76276e-05
4.56526e-05
4.28109e-05
3.92874e-05
3.50957e-05
3.05281e-05
2.56997e-05
2.0957e-05
1.64366e-05
1.24562e-05
9.11185e-06
6.6673e-06
5.18546e-06
4.90175e-06
5.87995e-06
8.34574e-06
1.23514e-05
1.8069e-05
2.54545e-05
3.45389e-05
4.51226e-05
5.70707e-05
7.00455e-05
8.38027e-05
9.79521e-05
0.000112234
0.000126286
0.000139899
0.000152781
0.000164776
0.00017565
0.000185303
0.000193583
0.000200495
0.000206037
0.00021039
0.00021375
0.000216485
0.000218954
0.000221624
0.000224877
0.000229113
0.000234584
0.000241506
0.000249931
0.000259875
0.00027122
0.000283852
0.00029757
0.000312218
0.000327578
0.000343484
0.000359706
0.000376061
0.000392304
0.000408234
0.000423606
0.00043824
0.000451953
0.000464674
0.000476368
0.000487143
0.000497155
0.000506692
0.000516056
0.000525617
0.000535691
0.0005466
0.000558557
0.000571738
0.000586181
0.000601886
0.000618724
0.000636553
0.000655145
0.000674296
0.000693754
0.00071333
0.000732818
0.000752091
0.000771017
0.00078955
0.000807642
0.000825329
0.000842639
0.000859685
0.000876561
0.000893433
0.000910433
0.000927745
0.000945499
0.000963856
0.000982906
0.00100275
0.00102339
0.00104486
0.00106708
0.00108999
0.00111346
0.00113739
0.00116161
0.00118605
0.00121056
0.0012351
0.0012596
0.00128406
0.00130849
0.00133295
0.00135749
0.00138221
0.00140719
0.00143254
0.00145833
0.00148465
0.00151153
0.00153906
0.00156721
0.00159603
0.00162547
0.00165554
0.00168617
0.00171736
0.00174902
0.00178116
0.00181371
0.00184667
0.00188
0.00191374
0.00194786
0.00198243
0.00201744
0.00205298
0.00208904
0.00212572
0.00216303
0.00220103
0.00223975
0.00227923
0.00231948
0.00236055
0.00240243
0.00244515
0.00248869
0.0025331
0.00257835
0.00262449
0.00267149
0.00271942
0.00276826
0.00281808
0.00286887
0.0029207
0.00297358
0.00302758
0.0030827
0.003139
0.00319648
0.00325518
0.00331506
0.00337614
0.00343834
0.00350163
0.00356588
0.003631
0.00369678
0.00376309
0.00382965
0.00389625
0.00396256
0.00402832
0.00409313
0.0041567
0.00421859
0.00427849
0.004336
0.0043909
0.00444299
0.0044922
0.00453836
-9.82332e-06
-1.51886e-05
-1.84323e-05
-1.97084e-05
-1.90307e-05
-1.66481e-05
-1.26525e-05
-7.40027e-06
-1.09706e-06
5.80387e-06
1.3043e-05
2.01804e-05
2.7e-05
3.31555e-05
3.85586e-05
4.30057e-05
4.65302e-05
4.90417e-05
5.06239e-05
5.12087e-05
5.08745e-05
4.95512e-05
4.73137e-05
4.41301e-05
4.01555e-05
3.54711e-05
3.03412e-05
2.49457e-05
1.96043e-05
1.45164e-05
9.97208e-06
6.13124e-06
3.23059e-06
1.39129e-06
8.21652e-07
1.64508e-06
4.06648e-06
8.18617e-06
1.41431e-05
2.1929e-05
3.1525e-05
4.27459e-05
5.53897e-05
6.91182e-05
8.36146e-05
9.84858e-05
0.000113405
0.000128014
0.000142047
0.000155221
0.000167332
0.000178165
0.000187584
0.000195472
0.00020182
0.000206682
0.000210247
0.000212784
0.000214686
0.000216386
0.000218367
0.000221069
0.000224895
0.000230138
0.000236999
0.000245547
0.000255765
0.000267533
0.000280691
0.000295026
0.000310322
0.000326347
0.000342872
0.000359656
0.000376463
0.000393042
0.000409146
0.000424532
0.000438992
0.000452365
0.000464577
0.000475643
0.000485693
0.000494955
0.000503748
0.00051244
0.000521422
0.000531064
0.000541691
0.000553545
0.00056678
0.000581437
0.000597468
0.000614729
0.000633017
0.000652079
0.000671653
0.000691473
0.000711305
0.000730942
0.000750231
0.000769055
0.000787355
0.000805113
0.000822368
0.00083919
0.000855701
0.00087204
0.000888385
0.000904908
0.000921798
0.000939218
0.000957325
0.000976226
0.000996001
0.00101667
0.00103821
0.00106054
0.00108357
0.00110715
0.00113114
0.00115538
0.00117975
0.00120411
0.00122841
0.00125258
0.00127665
0.00130062
0.00132457
0.00134858
0.00137276
0.00139721
0.00142204
0.00144733
0.00147319
0.00149966
0.00152678
0.00155457
0.00158303
0.00161213
0.00164184
0.00167209
0.00170286
0.00173406
0.00176568
0.00179765
0.00182996
0.00186259
0.00189555
0.00192884
0.00196251
0.00199658
0.00203111
0.00206614
0.00210173
0.00213792
0.00217475
0.00221227
0.00225049
0.00228944
0.00232913
0.00236956
0.00241074
0.00245265
0.0024953
0.00253868
0.00258279
0.00262762
0.00267319
0.00271949
0.00276655
0.00281437
0.00286298
0.00291237
0.00296257
0.00301357
0.00306538
0.00311797
0.00317131
0.00322535
0.00328004
0.00333526
0.00339095
0.00344695
0.00350312
0.0035593
0.0036153
0.0036709
0.00372591
0.00378005
0.0038331
0.00388478
0.00393484
0.003983
0.00402903
0.00407275
0.00411407
0.00415287
0.00418907
0.00422258
-1.56448e-05
-1.82106e-05
-1.94272e-05
-1.938e-05
-1.80216e-05
-1.54457e-05
-1.16319e-05
-6.73847e-06
-8.50086e-07
5.7428e-06
1.2823e-05
1.99987e-05
2.70203e-05
3.3536e-05
3.93762e-05
4.43103e-05
4.82885e-05
5.11899e-05
5.30342e-05
5.3752e-05
5.33894e-05
5.18897e-05
4.93169e-05
4.56746e-05
4.11165e-05
3.57683e-05
2.99022e-05
2.37466e-05
1.76283e-05
1.17908e-05
6.53323e-06
2.05616e-06
-1.4023e-06
-3.68114e-06
-4.56089e-06
-3.88288e-06
-1.44074e-06
2.89228e-06
9.24011e-06
1.75992e-05
2.79142e-05
3.99823e-05
5.35446e-05
6.82328e-05
8.36705e-05
9.94343e-05
0.000115142
0.000130415
0.000144941
0.000158424
0.000170623
0.000181324
0.000190377
0.000197687
0.000203262
0.000207204
0.000209743
0.00021122
0.000212078
0.00021282
0.000213967
0.000216015
0.000219388
0.000224407
0.000231269
0.000240043
0.00025068
0.000263041
0.000276912
0.000292049
0.000308178
0.000325027
0.000342315
0.00035977
0.000377109
0.000394055
0.000410321
0.000425653
0.000439828
0.000452705
0.000464226
0.000474458
0.00048358
0.000491888
0.000499756
0.000507617
0.000515906
0.000525044
0.000535372
0.000547152
0.000560519
0.000575499
0.000591992
0.000609816
0.000628704
0.000648359
0.000668462
0.000688715
0.000708845
0.000728631
0.0007479
0.000766544
0.000784508
0.000801799
0.000818476
0.000834649
0.000850468
0.000866116
0.000881795
0.00089772
0.000914098
0.000931122
0.00094895
0.000967699
0.000987432
0.00100816
0.00102982
0.00105232
0.00107552
0.00109924
0.00112331
0.00114755
0.00117181
0.00119596
0.00121993
0.00124367
0.00126721
0.00129058
0.00131387
0.0013372
0.00136069
0.00138446
0.00140864
0.00143334
0.00145863
0.00148459
0.00151124
0.0015386
0.00156664
0.00159532
0.00162459
0.00165438
0.00168463
0.00171527
0.00174624
0.00177749
0.00180899
0.00184073
0.00187272
0.00190497
0.00193752
0.00197042
0.00200371
0.00203746
0.00207173
0.00210655
0.00214197
0.00217802
0.00221472
0.00225209
0.00229012
0.0023288
0.00236812
0.00240806
0.0024486
0.00248972
0.00253139
0.00257362
0.00261638
0.00265966
0.00270347
0.0027478
0.00279265
0.002838
0.00288385
0.00293018
0.00297695
0.00302412
0.00307165
0.00311945
0.00316745
0.00321554
0.00326362
0.00331156
0.00335921
0.00340642
0.00345303
0.00349887
0.00354375
0.00358748
0.00362987
0.00367073
0.00370988
0.00374717
0.0037825
0.00381579
0.00384698
0.00387597
0.00390271
0.00392713
-2.09852e-05
-2.17976e-05
-2.15798e-05
-2.04071e-05
-1.82385e-05
-1.51391e-05
-1.10528e-05
-6.06062e-06
-1.81467e-07
6.37921e-06
1.34605e-05
2.07293e-05
2.79392e-05
3.47408e-05
4.0929e-05
4.62469e-05
5.05948e-05
5.38205e-05
5.59001e-05
5.67311e-05
5.63134e-05
5.45808e-05
5.15911e-05
4.73667e-05
4.20769e-05
3.58845e-05
2.90888e-05
2.19623e-05
1.48627e-05
8.07652e-06
1.93063e-06
-3.33942e-06
-7.46882e-06
-1.02602e-05
-1.14701e-05
-1.09075e-05
-8.35269e-06
-3.66753e-06
3.25924e-06
1.24093e-05
2.36876e-05
3.68502e-05
5.15826e-05
6.74681e-05
8.40711e-05
0.000100921
0.00011758
0.000133632
0.000148716
0.000162505
0.000174733
0.000185176
0.000193686
0.000200194
0.000204742
0.000207491
0.000208736
0.000208891
0.00020847
0.000208047
0.000208205
0.000209495
0.000212377
0.000217196
0.000224145
0.000233281
0.000244518
0.000257674
0.000272477
0.000288629
0.000305794
0.00032365
0.000341858
0.000360103
0.000378047
0.000395374
0.000411762
0.000426942
0.000440686
0.000452874
0.000463487
0.000472653
0.000480612
0.000487739
0.000494478
0.000501339
0.000508817
0.000517385
0.000527412
0.000539167
0.000552766
0.000568201
0.000585316
0.000603865
0.000623514
0.000643903
0.000664652
0.000685417
0.000705883
0.000725808
0.000745005
0.000763371
0.000780865
0.000797526
0.000813445
0.000828778
0.000843715
0.00085849
0.000873346
0.000888542
0.000904314
0.00092088
0.000938407
0.000957012
0.00097674
0.000997575
0.00101943
0.00104216
0.00106558
0.00108948
0.00111364
0.00113786
0.00116197
0.00118582
0.00120935
0.00123252
0.00125537
0.00127797
0.00130044
0.00132291
0.00134554
0.00136848
0.00139187
0.00141584
0.00144047
0.00146582
0.00149192
0.00151877
0.00154632
0.00157451
0.00160327
0.00163251
0.00166214
0.00169208
0.00172226
0.00175262
0.00178314
0.00181379
0.00184459
0.00187556
0.00190676
0.00193824
0.00197005
0.00200227
0.00203495
0.00206814
0.00210189
0.00213622
0.00217114
0.00220665
0.00224273
0.00227936
0.00231652
0.00235415
0.00239224
0.00243074
0.00246961
0.00250884
0.00254839
0.00258824
0.00262839
0.0026688
0.00270948
0.0027504
0.00279153
0.00283284
0.00287431
0.00291586
0.00295744
0.00299899
0.00304041
0.0030816
0.00312247
0.00316289
0.00320275
0.0032419
0.00328022
0.00331756
0.00335379
0.00338876
0.00342234
0.00345441
0.00348489
0.00351373
0.00354087
0.00356626
0.00358984
0.00361155
0.00363134
0.00364919
-2.61093e-05
-2.59121e-05
-2.47404e-05
-2.26785e-05
-1.97056e-05
-1.58968e-05
-1.12081e-05
-5.71598e-06
5.7512e-07
7.48809e-06
1.48848e-05
2.24594e-05
2.99783e-05
3.71008e-05
4.36133e-05
4.9245e-05
5.38664e-05
5.72991e-05
5.94888e-05
6.03027e-05
5.97088e-05
5.76189e-05
5.40755e-05
4.91114e-05
4.29137e-05
3.56776e-05
2.77385e-05
1.94146e-05
1.11083e-05
3.15407e-06
-4.08149e-06
-1.03167e-05
-1.52412e-05
-1.86158e-05
-2.016e-05
-1.96526e-05
-1.68614e-05
-1.16483e-05
-3.91987e-06
6.27618e-06
1.87928e-05
3.33339e-05
4.9525e-05
6.68875e-05
8.49172e-05
0.000103079
0.000120872
0.00013782
0.000153511
0.000167583
0.000179743
0.000189763
0.000197509
0.000202947
0.000206175
0.000207426
0.000207071
0.00020561
0.00020364
0.000201826
0.000200825
0.000201256
0.00020362
0.000208283
0.000215432
0.000225099
0.000237148
0.000251336
0.000267321
0.000284735
0.000303173
0.000322246
0.000341551
0.000360709
0.000379323
0.000397031
0.000413475
0.000428371
0.000441499
0.000452773
0.000462226
0.000470054
0.000476579
0.000482264
0.000487647
0.000493326
0.000499871
0.000507811
0.000517544
0.000529342
0.000543294
0.000559342
0.000577259
0.000596723
0.000617316
0.000638603
0.000660131
0.000681496
0.000702337
0.000722382
0.000741434
0.0007594
0.000776261
0.000792094
0.000807036
0.0008213
0.000835133
0.000848829
0.000862685
0.00087701
0.000892076
0.000908128
0.000925338
0.000943818
0.000963591
0.000984603
0.00100672
0.00102975
0.00105346
0.00107757
0.00110184
0.00112601
0.0011499
0.00117336
0.00119631
0.00121876
0.00124074
0.00126238
0.00128381
0.00130523
0.00132681
0.00134875
0.0013712
0.0013943
0.00141815
0.0014428
0.00146827
0.00149453
0.00152152
0.00154915
0.00157731
0.0016059
0.0016348
0.00166391
0.00169315
0.00172245
0.00175177
0.00178111
0.00181049
0.00183995
0.00186954
0.00189933
0.00192941
0.00195983
0.00199067
0.00202198
0.0020538
0.00208615
0.00211902
0.00215241
0.00218628
0.00222059
0.0022553
0.00229034
0.00232568
0.00236125
0.00239701
0.00243292
0.00246894
0.00250506
0.00254125
0.00257748
0.00261375
0.00265002
0.00268628
0.00272249
0.00275862
0.00279462
0.00283042
0.00286596
0.00290116
0.00293593
0.00297019
0.00300382
0.00303674
0.00306881
0.00309995
0.00313005
0.003159
0.00318671
0.00321313
0.0032382
0.00326189
0.00328418
0.00330502
0.00332436
0.00334217
0.0033584
0.00337303
0.00338603
-3.14091e-05
-3.06274e-05
-2.87972e-05
-2.60115e-05
-2.22672e-05
-1.76571e-05
-1.21609e-05
-5.87567e-06
1.17539e-06
8.80623e-06
1.68696e-05
2.50536e-05
3.31184e-05
4.07152e-05
4.76227e-05
5.35595e-05
5.83886e-05
6.19149e-05
6.40634e-05
6.46804e-05
6.37183e-05
6.10743e-05
5.67834e-05
5.08777e-05
4.35565e-05
3.50424e-05
2.57105e-05
1.59275e-05
6.15005e-06
-3.22719e-06
-1.17759e-05
-1.91527e-05
-2.49987e-05
-2.90118e-05
-3.08732e-05
-3.03382e-05
-2.71665e-05
-2.12265e-05
-1.24497e-05
-9.27765e-07
1.31395e-05
2.93934e-05
4.73846e-05
6.65539e-05
8.63119e-05
0.00010604
0.000125159
0.00014312
0.000159455
0.000173761
0.000185725
0.000195125
0.000201848
0.000205918
0.000207496
0.000206898
0.000204585
0.000201166
0.000197344
0.000193889
0.000191551
0.000191022
0.00019285
0.000197419
0.000204904
0.000215298
0.0002284
0.00024389
0.000261346
0.000280315
0.000300304
0.000320839
0.000341435
0.000361635
0.000380978
0.000399049
0.000415456
0.000429909
0.000442204
0.000452301
0.000460295
0.000466469
0.000471244
0.000475196
0.000478972
0.000483275
0.00048876
0.000496017
0.000505472
0.000517395
0.000531838
0.000548678
0.000567604
0.000588201
0.000609951
0.000632324
0.000654779
0.00067684
0.000698092
0.000718231
0.000737049
0.000754467
0.000770499
0.000785272
0.000798984
0.000811917
0.000824393
0.00083678
0.00084944
0.00086274
0.000876995
0.000892473
0.000909353
0.000927735
0.000947609
0.000968876
0.000991343
0.00101476
0.00103881
0.00106318
0.00108755
0.00111165
0.00113525
0.0011582
0.00118044
0.00120197
0.00122288
0.00124333
0.00126351
0.00128365
0.00130398
0.00132472
0.00134606
0.00136815
0.0013911
0.00141495
0.0014397
0.0014653
0.00149165
0.00151865
0.00154614
0.00157398
0.00160204
0.00163018
0.0016583
0.00168635
0.00171427
0.00174208
0.0017698
0.00179748
0.00182521
0.00185306
0.00188112
0.00190949
0.00193824
0.00196742
0.00199706
0.00202719
0.00205778
0.00208882
0.00212025
0.00215202
0.00218405
0.00221628
0.00224863
0.00228105
0.00231347
0.00234586
0.00237816
0.00241037
0.00244244
0.00247438
0.00250616
0.00253778
0.0025692
0.00260042
0.00263139
0.00266208
0.00269243
0.00272238
0.00275188
0.00278084
0.00280918
0.00283681
0.00286366
0.00288964
0.00291467
0.00293868
0.00296161
0.00298344
0.00300413
0.00302367
0.00304203
0.00305918
0.0030751
0.00308974
0.00310309
0.00311511
0.00312578
0.0031351
-3.71733e-05
-3.60375e-05
-3.37076e-05
-3.0285e-05
-2.57786e-05
-2.03009e-05
-1.38541e-05
-6.5649e-06
1.51199e-06
1.01555e-05
1.91908e-05
2.82785e-05
3.71532e-05
4.54418e-05
5.29012e-05
5.92304e-05
6.42775e-05
6.78348e-05
6.98169e-05
7.00644e-05
6.85256e-05
6.50973e-05
5.98106e-05
5.27007e-05
4.39833e-05
3.39091e-05
2.28946e-05
1.13601e-05
-1.7419e-07
-1.12415e-05
-2.13378e-05
-3.00433e-05
-3.69224e-05
-4.16281e-05
-4.37995e-05
-4.31628e-05
-3.94698e-05
-3.26012e-05
-2.25209e-05
-9.36501e-06
6.60326e-06
2.4946e-05
4.51207e-05
6.64675e-05
8.82908e-05
0.000109869
0.000130522
0.000149622
0.000166635
0.000181121
0.00019275
0.000201314
0.000206739
0.000209105
0.000208653
0.000205801
0.000201128
0.00019537
0.000189359
0.000183989
0.000180119
0.000178522
0.000179796
0.000184339
0.000192305
0.000203638
0.000218061
0.000235167
0.000254431
0.00027529
0.000297144
0.000319413
0.00034151
0.000362891
0.000383018
0.000401423
0.000417687
0.000431514
0.000442728
0.000451344
0.000457538
0.0004617
0.000464375
0.000466272
0.000468167
0.000470883
0.000475172
0.000481686
0.000490881
0.000503016
0.000518097
0.000535926
0.000556093
0.000578067
0.000601212
0.000624879
0.000648424
0.000671286
0.000692986
0.000713186
0.000731669
0.000748375
0.000763359
0.000776813
0.000789011
0.000800324
0.000811164
0.000821986
0.000833233
0.000845338
0.000858662
0.000873501
0.000890036
0.000908346
0.000928381
0.000949984
0.000972893
0.000996776
0.00102125
0.00104592
0.00107041
0.0010944
0.00111763
0.00113995
0.00116129
0.00118171
0.00120133
0.00122036
0.00123904
0.00125767
0.00127651
0.00129585
0.00131589
0.00133682
0.00135873
0.00138167
0.00140561
0.00143048
0.00145614
0.00148242
0.00150916
0.00153616
0.00156325
0.00159028
0.00161714
0.00164375
0.00167007
0.00169612
0.00172193
0.00174758
0.00177318
0.00179883
0.00182464
0.00185071
0.00187712
0.00190394
0.0019312
0.00195891
0.00198704
0.00201555
0.00204437
0.00207343
0.00210263
0.00213189
0.00216113
0.00219027
0.00221924
0.002248
0.00227652
0.00230476
0.00233272
0.00236039
0.00238777
0.00241485
0.00244162
0.00246808
0.0024942
0.00251995
0.00254529
0.00257018
0.00259455
0.00261834
0.00264148
0.00266391
0.00268556
0.00270637
0.00272628
0.00274528
0.00276334
0.00278043
0.00279655
0.00281167
0.00282577
0.00283883
0.00285083
0.00286175
0.00287157
0.00288026
0.00288783
0.00289426
-4.35818e-05
-4.22158e-05
-3.94591e-05
-3.54243e-05
-3.01325e-05
-2.37172e-05
-1.62051e-05
-7.75521e-06
1.54279e-06
1.14276e-05
2.16813e-05
3.19224e-05
4.18445e-05
5.1037e-05
5.92222e-05
6.60707e-05
7.14062e-05
7.50052e-05
7.67724e-05
7.65433e-05
7.42661e-05
6.9842e-05
6.33125e-05
5.47263e-05
4.43157e-05
3.23686e-05
1.93503e-05
5.74355e-06
-7.8575e-06
-2.09027e-05
-3.27953e-05
-4.30291e-05
-5.11004e-05
-5.65955e-05
-5.91008e-05
-5.83124e-05
-5.39783e-05
-4.5995e-05
-3.43626e-05
-1.92673e-05
-1.04516e-06
1.97729e-05
4.25332e-05
6.64546e-05
9.07132e-05
0.00011446
0.000136897
0.000157299
0.00017506
0.000189696
0.00020087
0.000208391
0.000212233
0.000212543
0.00020966
0.000204122
0.000196652
0.000188137
0.000179561
0.000171964
0.00016633
0.000163525
0.000164201
0.000168769
0.000177354
0.000189841
0.000205871
0.000224928
0.000246362
0.000269479
0.000293543
0.000317846
0.000341681
0.000364399
0.000385379
0.000404099
0.00042011
0.000433121
0.00044299
0.000449798
0.000453827
0.000455593
0.00045579
0.000455281
0.000454993
0.000455884
0.000458815
0.000464508
0.000473446
0.000485872
0.000501738
0.000520758
0.000542405
0.000566013
0.000590803
0.000615989
0.000640803
0.000664584
0.00068678
0.000707013
0.000725061
0.000740884
0.000754594
0.000766456
0.000776842
0.000786225
0.000795126
0.000804104
0.000813698
0.000824414
0.000836669
0.000850786
0.000866946
0.000885202
0.000905452
0.000927471
0.000950913
0.000975357
0.00100033
0.00102534
0.00104996
0.00107381