/*--------------------------------*- C++ -*----------------------------------*\
| =========                 |                                                 |
| \\      /  F ield         | OpenFOAM: The Open Source CFD Toolbox           |
|  \\    /   O peration     | Version:  v1912                                 |
|   \\  /    A nd           | Website:  www.openfoam.com                      |
|    \\/     M anipulation  |                                                 |
\*---------------------------------------------------------------------------*/
FoamFile
{
    version     2.0;
    format      ascii;
    class       surfaceScalarField;
    location    "1";
    object      phi;
}
// * * * * * * * * * * * * * * * * * * * * * * * * * * * * * * * * * * * * * //

dimensions      [0 3 -1 0 0 0 0];
oriented        oriented;


internalField   nonuniform List<scalar> 
23660
(
3.87646e-06
8.32403e-10
3.87651e-06
-9.74675e-10
3.87645e-06
8.64351e-10
3.87637e-06
-8.71789e-10
3.87631e-06
8.80579e-10
3.87626e-06
-8.39558e-10
3.87624e-06
8.48827e-10
3.87623e-06
-8.35532e-10
3.87625e-06
8.21204e-10
3.87625e-06
-8.24943e-10
3.87627e-06
8.04526e-10
3.87625e-06
-7.99835e-10
3.87626e-06
7.91709e-10
3.87624e-06
-7.76869e-10
3.87624e-06
7.81905e-10
3.87623e-06
-7.59288e-10
3.87622e-06
7.7047e-10
3.87622e-06
-7.4476e-10
3.87622e-06
7.52285e-10
3.87623e-06
-7.34077e-10
3.87623e-06
7.30137e-10
3.87625e-06
-7.25344e-10
3.87626e-06
7.05729e-10
3.87628e-06
-7.17058e-10
3.87629e-06
6.83736e-10
3.87631e-06
-7.08606e-10
3.87632e-06
6.64603e-10
3.87634e-06
-7.01689e-10
3.87634e-06
6.49323e-10
3.87635e-06
-6.92302e-10
3.87634e-06
6.36379e-10
3.87635e-06
-6.77521e-10
3.87633e-06
6.282e-10
3.87634e-06
-6.57645e-10
3.87631e-06
6.24161e-10
3.8763e-06
-6.33813e-10
3.87626e-06
6.22739e-10
3.87625e-06
-6.07337e-10
3.8762e-06
6.22887e-10
3.87618e-06
-5.82082e-10
3.87613e-06
6.23946e-10
3.8761e-06
-5.59617e-10
3.87604e-06
6.24892e-10
3.87602e-06
-5.40769e-10
3.87596e-06
6.22804e-10
3.87593e-06
-5.25007e-10
3.87588e-06
6.17129e-10
3.87586e-06
-5.11894e-10
3.87581e-06
6.09545e-10
3.87579e-06
-5.01515e-10
3.87574e-06
5.98763e-10
3.87574e-06
-4.93344e-10
3.87569e-06
5.85874e-10
3.87569e-06
-4.86967e-10
3.87565e-06
5.71783e-10
3.87564e-06
-4.81506e-10
3.8756e-06
5.56943e-10
3.8756e-06
-4.75609e-10
3.87555e-06
5.42129e-10
3.87554e-06
-4.67521e-10
3.87549e-06
5.33609e-10
3.87548e-06
-4.56393e-10
3.87542e-06
5.29477e-10
3.87541e-06
-4.41721e-10
3.87534e-06
5.28327e-10
3.87533e-06
-4.25823e-10
3.87526e-06
5.29313e-10
3.87524e-06
-4.1015e-10
3.87516e-06
5.31403e-10
3.87514e-06
-3.95558e-10
3.87506e-06
5.31303e-10
3.87504e-06
-3.82566e-10
3.87496e-06
5.29295e-10
3.87494e-06
-3.71587e-10
3.87486e-06
5.25322e-10
3.87484e-06
-3.62703e-10
3.87476e-06
5.19493e-10
3.87474e-06
-3.55488e-10
3.87466e-06
5.12495e-10
3.87465e-06
-3.49166e-10
3.87457e-06
5.05149e-10
3.87456e-06
-3.43015e-10
3.87447e-06
4.98279e-10
3.87446e-06
-3.36246e-10
3.87438e-06
4.92922e-10
3.87436e-06
-3.27983e-10
3.87427e-06
4.89832e-10
3.87425e-06
-3.17989e-10
3.87416e-06
4.88929e-10
3.87414e-06
-3.06776e-10
3.87404e-06
4.89449e-10
3.87402e-06
-2.95091e-10
3.87392e-06
4.90626e-10
3.87389e-06
-2.83638e-10
3.87379e-06
4.916e-10
3.87376e-06
-2.73036e-10
3.87366e-06
4.91779e-10
3.87363e-06
-2.63605e-10
3.87352e-06
4.90962e-10
3.87349e-06
-2.5529e-10
3.87339e-06
4.89377e-10
3.87336e-06
-2.4775e-10
3.87325e-06
4.87504e-10
3.87322e-06
-2.40507e-10
3.87311e-06
4.85805e-10
3.87308e-06
-2.3316e-10
3.87297e-06
4.84691e-10
3.87294e-06
-2.25366e-10
3.87282e-06
4.84493e-10
3.87279e-06
-2.16931e-10
3.87267e-06
4.8533e-10
3.87263e-06
-2.0789e-10
3.87251e-06
4.87091e-10
3.87247e-06
-1.98434e-10
3.87235e-06
4.89549e-10
3.87231e-06
-1.88819e-10
3.87218e-06
4.92416e-10
3.87214e-06
-1.79309e-10
3.872e-06
4.95401e-10
3.87196e-06
-1.70101e-10
3.87183e-06
4.98297e-10
3.87178e-06
-1.61286e-10
3.87164e-06
5.01093e-10
3.8716e-06
-1.52765e-10
3.87145e-06
5.0395e-10
3.87141e-06
-1.44368e-10
3.87126e-06
5.07044e-10
3.87121e-06
-1.35924e-10
3.87106e-06
5.10547e-10
3.87101e-06
-1.27274e-10
3.87086e-06
5.14645e-10
3.8708e-06
-1.18288e-10
3.87065e-06
5.19473e-10
3.87059e-06
-1.08927e-10
3.87043e-06
5.25057e-10
3.87037e-06
-9.92263e-11
3.8702e-06
5.31357e-10
3.87014e-06
-8.92542e-11
3.86997e-06
5.38306e-10
3.86991e-06
-7.90789e-11
3.86973e-06
5.45851e-10
3.86966e-06
-6.87423e-11
3.86948e-06
5.5398e-10
3.86941e-06
-5.82454e-11
3.86923e-06
5.62743e-10
3.86915e-06
-4.75502e-11
3.86896e-06
5.72256e-10
3.86888e-06
-3.66007e-11
3.86868e-06
5.82672e-10
3.86861e-06
-2.53726e-11
3.8684e-06
5.94092e-10
3.86832e-06
-1.39772e-11
3.8681e-06
6.06407e-10
3.86802e-06
-3.02323e-12
3.8678e-06
6.19166e-10
3.86771e-06
1.36049e-11
3.86748e-06
6.32307e-10
3.86739e-06
3.06483e-11
3.86715e-06
6.46349e-10
3.86705e-06
4.77357e-11
3.8668e-06
6.6167e-10
3.8667e-06
6.54342e-11
3.86644e-06
6.78415e-10
3.86633e-06
8.40075e-11
3.86606e-06
6.96543e-10
3.86595e-06
1.03524e-10
3.86567e-06
7.15765e-10
3.86555e-06
1.23855e-10
3.86526e-06
7.35886e-10
3.86513e-06
1.44999e-10
3.86483e-06
7.57167e-10
3.86469e-06
1.67214e-10
3.86437e-06
7.80119e-10
3.86421e-06
1.90931e-10
3.86388e-06
8.05294e-10
3.86371e-06
2.16665e-10
3.86337e-06
8.33237e-10
3.86318e-06
2.44983e-10
3.86281e-06
8.64509e-10
3.86261e-06
2.76505e-10
3.86222e-06
8.99716e-10
3.86199e-06
3.11935e-10
3.86158e-06
9.39558e-10
3.86133e-06
3.52139e-10
3.86089e-06
9.84991e-10
3.86061e-06
3.98401e-10
3.86013e-06
1.03771e-09
3.85982e-06
4.53017e-10
3.8593e-06
1.10097e-09
3.85895e-06
5.20472e-10
3.85837e-06
1.18228e-09
3.85795e-06
6.12555e-10
3.85728e-06
1.30464e-09
3.85675e-06
7.6145e-10
3.8559e-06
1.5193e-09
3.85515e-06
1.02791e-09
3.85398e-06
1.90153e-09
3.85286e-06
1.50369e-09
3.85117e-06
2.55569e-09
1.95907e-09
3.84989e-06
4.18597e-06
7.25419e-10
4.18586e-06
-8.65637e-10
4.18595e-06
7.7517e-10
4.18583e-06
-7.58436e-10
4.18591e-06
8.02912e-10
4.1858e-06
-7.25445e-10
4.18587e-06
7.7761e-10
4.18576e-06
-7.32005e-10
4.18584e-06
7.42314e-10
4.18574e-06
-7.20231e-10
4.18581e-06
7.29581e-10
4.18571e-06
-6.95782e-10
4.18578e-06
7.20434e-10
4.18568e-06
-6.73551e-10
4.18575e-06
7.08878e-10
4.18565e-06
-6.60392e-10
4.18573e-06
6.92799e-10
4.18564e-06
-6.54151e-10
4.18572e-06
6.6869e-10
4.18564e-06
-6.5222e-10
4.18573e-06
6.4091e-10
4.18566e-06
-6.52964e-10
4.18575e-06
6.13253e-10
4.18569e-06
-6.53624e-10
4.18578e-06
5.89479e-10
4.18572e-06
-6.51664e-10
4.18582e-06
5.71117e-10
4.18576e-06
-6.44277e-10
4.18585e-06
5.58674e-10
4.18579e-06
-6.30791e-10
4.18587e-06
5.53176e-10
4.1858e-06
-6.09678e-10
4.18588e-06
5.54663e-10
4.1858e-06
-5.80847e-10
4.18586e-06
5.62419e-10
4.18578e-06
-5.4669e-10
4.18582e-06
5.74987e-10
4.18573e-06
-5.11248e-10
4.18576e-06
5.89942e-10
4.18566e-06
-4.77653e-10
4.18568e-06
6.03373e-10
4.18557e-06
-4.48346e-10
4.18558e-06
6.11655e-10
4.18546e-06
-4.25425e-10
4.18547e-06
6.12545e-10
4.18536e-06
-4.1032e-10
4.18537e-06
6.05519e-10
4.18526e-06
-4.02537e-10
4.18528e-06
5.91936e-10
4.18518e-06
-3.99893e-10
4.1852e-06
5.74075e-10
4.18511e-06
-4.00332e-10
4.18514e-06
5.5324e-10
4.18506e-06
-4.01603e-10
4.18509e-06
5.34465e-10
4.18501e-06
-4.02771e-10
4.18505e-06
5.19902e-10
4.18498e-06
-4.00642e-10
4.18501e-06
5.10033e-10
4.18493e-06
-3.91825e-10
4.18496e-06
5.07068e-10
4.18488e-06
-3.7559e-10
4.1849e-06
5.1083e-10
4.18481e-06
-3.53239e-10
4.18482e-06
5.18392e-10
4.18472e-06
-3.29869e-10
4.18472e-06
5.27878e-10
4.18462e-06
-3.0767e-10
4.18462e-06
5.37269e-10
4.18451e-06
-2.88845e-10
4.1845e-06
5.41965e-10
4.18439e-06
-2.74279e-10
4.18438e-06
5.4167e-10
4.18427e-06
-2.64525e-10
4.18426e-06
5.3636e-10
4.18416e-06
-2.58782e-10
4.18415e-06
5.26953e-10
4.18405e-06
-2.55467e-10
4.18404e-06
5.16596e-10
4.18395e-06
-2.52871e-10
4.18395e-06
5.07495e-10
4.18385e-06
-2.49486e-10
4.18385e-06
5.01029e-10
4.18376e-06
-2.43285e-10
4.18375e-06
4.98352e-10
4.18366e-06
-2.32875e-10
4.18365e-06
5.00281e-10
4.18355e-06
-2.18923e-10
4.18353e-06
5.05611e-10
4.18343e-06
-2.03195e-10
4.1834e-06
5.12706e-10
4.1833e-06
-1.87521e-10
4.18327e-06
5.19757e-10
4.18316e-06
-1.72739e-10
4.18312e-06
5.24825e-10
4.18301e-06
-1.60135e-10
4.18297e-06
5.27074e-10
4.18286e-06
-1.49923e-10
4.18282e-06
5.26488e-10
4.18271e-06
-1.41837e-10
4.18268e-06
5.24522e-10
4.18256e-06
-1.35019e-10
4.18253e-06
5.22733e-10
4.18242e-06
-1.28331e-10
4.18238e-06
5.21922e-10
4.18227e-06
-1.20805e-10
4.18223e-06
5.22712e-10
4.18212e-06
-1.11637e-10
4.18207e-06
5.25566e-10
4.18196e-06
-1.00736e-10
4.18191e-06
5.30294e-10
4.18179e-06
-8.85382e-11
4.18174e-06
5.36383e-10
4.18162e-06
-7.56163e-11
4.18157e-06
5.43163e-10
4.18144e-06
-6.25794e-11
4.18138e-06
5.49903e-10
4.18126e-06
-4.99819e-11
4.18119e-06
5.56056e-10
4.18106e-06
-3.82161e-11
4.181e-06
5.61481e-10
4.18087e-06
-2.74914e-11
4.1808e-06
5.66245e-10
4.18066e-06
-1.69375e-11
4.1806e-06
5.70776e-10
4.18046e-06
-6.15657e-12
4.18039e-06
5.75844e-10
4.18025e-06
4.87341e-12
4.18018e-06
5.82034e-10
4.18004e-06
1.61567e-11
4.17996e-06
5.89514e-10
4.17981e-06
2.84048e-11
4.17974e-06
5.98174e-10
4.17958e-06
4.15488e-11
4.1795e-06
6.07845e-10
4.17935e-06
5.54343e-11
4.17926e-06
6.18312e-10
4.1791e-06
6.98637e-11
4.17901e-06
6.29369e-10
4.17885e-06
8.46663e-11
4.17875e-06
6.40889e-10
4.17858e-06
9.97573e-11
4.17848e-06
6.52864e-10
4.17831e-06
1.15164e-10
4.17821e-06
6.654e-10
4.17803e-06
1.31008e-10
4.17792e-06
6.78661e-10
4.17774e-06
1.47458e-10
4.17763e-06
6.92799e-10
4.17744e-06
1.6468e-10
4.17732e-06
7.07965e-10
4.17713e-06
1.82846e-10
4.17701e-06
7.24484e-10
4.1768e-06
2.02271e-10
4.17668e-06
7.43114e-10
4.17647e-06
2.23421e-10
4.17634e-06
7.63921e-10
4.17612e-06
2.45994e-10
4.17598e-06
7.86243e-10
4.17576e-06
2.69764e-10
4.17561e-06
8.09886e-10
4.17538e-06
2.94787e-10
4.17523e-06
8.34988e-10
4.17499e-06
3.21214e-10
4.17483e-06
8.61752e-10
4.17458e-06
3.49264e-10
4.1744e-06
8.90602e-10
4.17415e-06
3.79319e-10
4.17396e-06
9.21904e-10
4.1737e-06
4.11573e-10
4.1735e-06
9.55822e-10
4.17322e-06
4.46282e-10
4.17301e-06
9.9274e-10
4.17271e-06
4.8399e-10
4.17249e-06
1.03335e-09
4.17218e-06
5.25474e-10
4.17193e-06
1.07852e-09
4.1716e-06
5.71657e-10
4.17134e-06
1.12926e-09
4.17099e-06
6.23626e-10
4.17071e-06
1.18675e-09
4.17033e-06
6.82786e-10
4.17002e-06
1.2527e-09
4.16962e-06
7.51118e-10
4.16928e-06
1.32935e-09
4.16885e-06
8.31142e-10
4.16846e-06
1.42036e-09
4.16798e-06
9.30865e-10
4.16755e-06
1.54051e-09
4.167e-06
1.06668e-09
4.16647e-06
1.70869e-09
4.16583e-06
1.25562e-09
4.16519e-06
1.94198e-09
4.16444e-06
1.51825e-09
4.1637e-06
2.25983e-09
4.16285e-06
1.8768e-09
4.16207e-06
2.67832e-09
4.16123e-06
2.34235e-09
4.16061e-06
3.17846e-09
2.82104e-09
4.15975e-06
4.52021e-06
5.80185e-10
4.51992e-06
-5.80986e-10
4.52013e-06
5.64697e-10
4.51991e-06
-5.36613e-10
4.52014e-06
5.78632e-10
4.51992e-06
-5.11558e-10
4.52013e-06
5.65651e-10
4.51991e-06
-5.09574e-10
4.52011e-06
5.42665e-10
4.51989e-06
-4.94272e-10
4.52008e-06
5.35239e-10
4.51986e-06
-4.7249e-10
4.52004e-06
5.33402e-10
4.51982e-06
-4.55061e-10
4.52001e-06
5.23342e-10
4.5198e-06
-4.47944e-10
4.51999e-06
5.01928e-10
4.51979e-06
-4.50646e-10
4.51998e-06
4.72149e-10
4.51979e-06
-4.59762e-10
4.51999e-06
4.38607e-10
4.51981e-06
-4.70752e-10
4.52002e-06
4.05907e-10
4.51984e-06
-4.7889e-10
4.52005e-06
3.77969e-10
4.51988e-06
-4.80496e-10
4.52009e-06
3.59509e-10
4.51992e-06
-4.72956e-10
4.52013e-06
3.51714e-10
4.51995e-06
-4.55486e-10
4.52015e-06
3.554e-10
4.51997e-06
-4.28204e-10
4.52015e-06
3.70645e-10
4.51997e-06
-3.91807e-10
4.52013e-06
3.93839e-10
4.51994e-06
-3.47983e-10
4.52009e-06
4.21775e-10
4.51988e-06
-3.01426e-10
4.52002e-06
4.50114e-10
4.5198e-06
-2.56814e-10
4.51993e-06
4.74351e-10
4.5197e-06
-2.20072e-10
4.51982e-06
4.89927e-10
4.51959e-06
-1.94421e-10
4.51971e-06
4.94124e-10
4.51948e-06
-1.82186e-10
4.5196e-06
4.86207e-10
4.51938e-06
-1.8206e-10
4.5195e-06
4.67602e-10
4.51929e-06
-1.8908e-10
4.51942e-06
4.43362e-10
4.51922e-06
-1.99735e-10
4.51936e-06
4.16365e-10
4.51917e-06
-2.09931e-10
4.51931e-06
3.93099e-10
4.51912e-06
-2.15949e-10
4.51926e-06
3.77012e-10
4.51908e-06
-2.14664e-10
4.51922e-06
3.7064e-10
4.51903e-06
-2.03758e-10
4.51916e-06
3.75406e-10
4.51897e-06
-1.83488e-10
4.51909e-06
3.90784e-10
4.51889e-06
-1.56536e-10
4.519e-06
4.09603e-10
4.5188e-06
-1.26636e-10
4.5189e-06
4.28408e-10
4.51869e-06
-9.76349e-11
4.51878e-06
4.44038e-10
4.51857e-06
-7.4521e-11
4.51866e-06
4.53407e-10
4.51844e-06
-5.91453e-11
4.51853e-06
4.55117e-10
4.51831e-06
-5.20669e-11
4.5184e-06
4.48868e-10
4.51819e-06
-5.04699e-11
4.51828e-06
4.37016e-10
4.51808e-06
-5.18596e-11
4.51817e-06
4.24382e-10
4.51797e-06
-5.34737e-11
4.51807e-06
4.14072e-10
4.51787e-06
-5.25079e-11
4.51796e-06
4.08401e-10
4.51777e-06
-4.66607e-11
4.51785e-06
4.0981e-10
4.51766e-06
-3.48762e-11
4.51774e-06
4.1878e-10
4.51754e-06
-1.78974e-11
4.51761e-06
4.31156e-10
4.51741e-06
2.04289e-12
4.51747e-06
4.45022e-10
4.51726e-06
2.17376e-11
4.51733e-06
4.57731e-10
4.51711e-06
3.99349e-11
4.51717e-06
4.67106e-10
4.51696e-06
5.37393e-11
4.51701e-06
4.72226e-10
4.5168e-06
6.37293e-11
4.51685e-06
4.72739e-10
4.51664e-06
7.08859e-11
4.51669e-06
4.71043e-10
4.51648e-06
7.68146e-11
4.51653e-06
4.69933e-10
4.51632e-06
8.2922e-11
4.51637e-06
4.70546e-10
4.51616e-06
9.05149e-11
4.51621e-06
4.7418e-10
4.516e-06
1.00445e-10
4.51604e-06
4.81543e-10
4.51583e-06
1.12998e-10
4.51587e-06
4.91327e-10
4.51565e-06
1.2774e-10
4.51569e-06
5.02491e-10
4.51547e-06
1.43763e-10
4.5155e-06
5.14138e-10
4.51527e-06
1.59917e-10
4.5153e-06
5.25308e-10
4.51507e-06
1.75188e-10
4.51509e-06
5.35261e-10
4.51487e-06
1.89115e-10
4.51488e-06
5.43668e-10
4.51465e-06
2.01763e-10
4.51467e-06
5.51016e-10
4.51444e-06
2.1378e-10
4.51445e-06
5.58495e-10
4.51422e-06
2.25864e-10
4.51423e-06
5.6699e-10
4.51399e-06
2.38644e-10
4.514e-06
5.76823e-10
4.51376e-06
2.52588e-10
4.51376e-06
5.88281e-10
4.51352e-06
2.67974e-10
4.51352e-06
6.01368e-10
4.51328e-06
2.84738e-10
4.51327e-06
6.15768e-10
4.51302e-06
3.02599e-10
4.51301e-06
6.31105e-10
4.51276e-06
3.21198e-10
4.51274e-06
6.4706e-10
4.51249e-06
3.40247e-10
4.51246e-06
6.63445e-10
4.5122e-06
3.59621e-10
4.51218e-06
6.80252e-10
4.51191e-06
3.79376e-10
4.51188e-06
6.97642e-10
4.51161e-06
3.99714e-10
4.51157e-06
7.15873e-10
4.5113e-06
4.20913e-10
4.51126e-06
7.35241e-10
4.51098e-06
4.43287e-10
4.51093e-06
7.56133e-10
4.51065e-06
4.67181e-10
4.51059e-06
7.79102e-10
4.5103e-06
4.92942e-10
4.51024e-06
8.04303e-10
4.50994e-06
5.20619e-10
4.50988e-06
8.31641e-10
4.50957e-06
5.50425e-10
4.5095e-06
8.60958e-10
4.50918e-06
5.82251e-10
4.5091e-06
8.92119e-10
4.50878e-06
6.15905e-10
4.50869e-06
9.25277e-10
4.50836e-06
6.51489e-10
4.50826e-06
9.60778e-10
4.50792e-06
6.89564e-10
4.50781e-06
9.99143e-10
4.50746e-06
7.30809e-10
4.50734e-06
1.04092e-09
4.50698e-06
7.75548e-10
4.50685e-06
1.08655e-09
4.50647e-06
8.24148e-10
4.50632e-06
1.13661e-09
4.50593e-06
8.77307e-10
4.50577e-06
1.19192e-09
4.50536e-06
9.3604e-10
4.50519e-06
1.25363e-09
4.50476e-06
1.00163e-09
4.50456e-06
1.32317e-09
4.50411e-06
1.07572e-09
4.5039e-06
1.40242e-09
4.50342e-06
1.16057e-09
4.50318e-06
1.49425e-09
4.50267e-06
1.25993e-09
4.50239e-06
1.60389e-09
4.50184e-06
1.38071e-09
4.50152e-06
1.74039e-09
4.50092e-06
1.53304e-09
4.50055e-06
1.91437e-09
4.49989e-06
1.72681e-09
4.49946e-06
2.1346e-09
4.49875e-06
1.97079e-09
4.49828e-06
2.40918e-09
4.49752e-06
2.2737e-09
4.49704e-06
2.74547e-09
4.49627e-06
2.64114e-09
4.49581e-06
3.14248e-09
4.49509e-06
3.05684e-09
4.49479e-06
3.48459e-09
3.53692e-09
4.49407e-06
4.88111e-06
4.21305e-10
4.88081e-06
-2.81533e-10
4.88097e-06
3.96952e-10
4.88075e-06
-3.07773e-10
4.88097e-06
3.55474e-10
4.88078e-06
-3.17744e-10
4.88099e-06
3.47908e-10
4.88078e-06
-2.99755e-10
4.88098e-06
3.45696e-10
4.88076e-06
-2.7865e-10
4.88095e-06
3.5113e-10
4.88073e-06
-2.57151e-10
4.88091e-06
3.54269e-10
4.8807e-06
-2.42278e-10
4.88088e-06
3.44387e-10
4.88067e-06
-2.43135e-10
4.88086e-06
3.19149e-10
4.88066e-06
-2.57413e-10
4.88085e-06
2.84095e-10
4.88067e-06
-2.7956e-10
4.88086e-06
2.44959e-10
4.8807e-06
-3.0282e-10
4.88089e-06
2.08239e-10
4.88074e-06
-3.20989e-10
4.88094e-06
1.79534e-10
4.88078e-06
-3.2887e-10
4.88098e-06
1.64335e-10
4.88083e-06
-3.22961e-10
4.88102e-06
1.64306e-10
4.88086e-06
-3.02089e-10
4.88104e-06
1.79526e-10
4.88088e-06
-2.67156e-10
4.88104e-06
2.09122e-10
4.88087e-06
-2.20339e-10
4.88101e-06
2.48375e-10
4.88083e-06
-1.65348e-10
4.88096e-06
2.93473e-10
4.88077e-06
-1.08808e-10
4.88088e-06
3.38851e-10
4.88068e-06
-5.66094e-11
4.88077e-06
3.7716e-10
4.88057e-06
-1.58294e-11
4.88066e-06
4.01664e-10
4.88045e-06
1.02063e-11
4.88054e-06
4.0852e-10
4.88034e-06
1.94828e-11
4.88043e-06
3.9676e-10
4.88023e-06
1.24259e-11
4.88033e-06
3.71886e-10
4.88014e-06
-4.65048e-12
4.88025e-06
3.41633e-10
4.88007e-06
-2.70688e-11
4.88018e-06
3.10611e-10
4.88002e-06
-4.77924e-11
4.88012e-06
2.85204e-10
4.87997e-06
-6.06682e-11
4.88008e-06
2.70471e-10
4.87992e-06
-6.13002e-11
4.88002e-06
2.69562e-10
4.87987e-06
-4.80023e-11
4.87996e-06
2.83897e-10
4.8798e-06
-2.19422e-11
4.87988e-06
3.09324e-10
4.87971e-06
1.1445e-11
4.87978e-06
3.39167e-10
4.87961e-06
4.80592e-11
4.87967e-06
3.68412e-10
4.87949e-06
8.15641e-11
4.87954e-06
3.91953e-10
4.87936e-06
1.07357e-10
4.87941e-06
4.06112e-10
4.87922e-06
1.22782e-10
4.87927e-06
4.08819e-10
4.87909e-06
1.27125e-10
4.87914e-06
4.01434e-10
4.87896e-06
1.23313e-10
4.87901e-06
3.89218e-10
4.87884e-06
1.16024e-10
4.87889e-06
3.75794e-10
4.87873e-06
1.09257e-10
4.87878e-06
3.65647e-10
4.87862e-06
1.07111e-10
4.87866e-06
3.62373e-10
4.87851e-06
1.12531e-10
4.87855e-06
3.68614e-10
4.87838e-06
1.27343e-10
4.87842e-06
3.83517e-10
4.87825e-06
1.48424e-10
4.87828e-06
4.02662e-10
4.87811e-06
1.72826e-10
4.87813e-06
4.23248e-10
4.87796e-06
1.96779e-10
4.87797e-06
4.41837e-10
4.8778e-06
2.175e-10
4.87781e-06
4.55659e-10
4.87763e-06
2.32622e-10
4.87764e-06
4.6334e-10
4.87746e-06
2.41829e-10
4.87747e-06
4.65798e-10
4.87729e-06
2.46886e-10
4.8773e-06
4.66233e-10
4.87712e-06
2.50932e-10
4.87712e-06
4.66932e-10
4.87695e-06
2.55956e-10
4.87695e-06
4.69804e-10
4.87678e-06
2.63742e-10
4.87678e-06
4.76411e-10
4.8766e-06
2.7554e-10
4.8766e-06
4.87473e-10
4.87642e-06
2.91113e-10
4.87641e-06
5.01728e-10
4.87623e-06
3.09102e-10
4.87621e-06
5.17871e-10
4.87603e-06
3.28412e-10
4.87601e-06
5.346e-10
4.87582e-06
3.47587e-10
4.87579e-06
5.50497e-10
4.8756e-06
3.65384e-10
4.87557e-06
5.64594e-10
4.87538e-06
3.81187e-10
4.87535e-06
5.76681e-10
4.87515e-06
3.95204e-10
4.87512e-06
5.87506e-10
4.87492e-06
4.08405e-10
4.87488e-06
5.98402e-10
4.87469e-06
4.22023e-10
4.87464e-06
6.10428e-10
4.87445e-06
4.3692e-10
4.8744e-06
6.24221e-10
4.8742e-06
4.53633e-10
4.87415e-06
6.40071e-10
4.87394e-06
4.72345e-10
4.87388e-06
6.57933e-10
4.87368e-06
4.92861e-10
4.87361e-06
6.77444e-10
4.8734e-06
5.1473e-10
4.87334e-06
6.981e-10
4.87312e-06
5.37454e-10
4.87305e-06
7.19448e-10
4.87283e-06
5.60657e-10
4.87275e-06
7.41225e-10
4.87252e-06
5.84189e-10
4.87244e-06
7.63424e-10
4.87221e-06
6.08156e-10
4.87212e-06
7.86269e-10
4.87189e-06
6.32861e-10
4.8718e-06
8.10142e-10
4.87156e-06
6.58728e-10
4.87146e-06
8.3551e-10
4.87121e-06
6.86241e-10
4.87111e-06
8.62874e-10
4.87086e-06
7.15858e-10
4.87075e-06
8.92627e-10
4.87049e-06
7.47825e-10
4.87037e-06
9.24845e-10
4.87011e-06
7.82177e-10
4.86998e-06
9.5955e-10
4.86971e-06
8.18981e-10
4.86958e-06
9.9678e-10
4.8693e-06
8.58238e-10
4.86916e-06
1.03652e-09
4.86887e-06
8.99976e-10
4.86872e-06
1.07889e-09
4.86843e-06
9.44458e-10
4.86826e-06
1.12434e-09
4.86796e-06
9.92222e-10
4.86778e-06
1.17348e-09
4.86747e-06
1.04391e-09
4.86729e-06
1.22697e-09
4.86696e-06
1.10015e-09
4.86676e-06
1.28541e-09
4.86642e-06
1.16161e-09
4.86621e-06
1.34959e-09
4.86586e-06
1.22919e-09
4.86563e-06
1.42055e-09
4.86526e-06
1.30413e-09
4.86502e-06
1.49971e-09
4.86463e-06
1.38807e-09
4.86436e-06
1.58902e-09
4.86396e-06
1.48331e-09
4.86367e-06
1.69131e-09
4.86324e-06
1.59328e-09
4.86292e-06
1.81079e-09
4.86246e-06
1.72289e-09
4.86211e-06
1.95296e-09
4.86161e-06
1.87784e-09
4.86123e-06
2.12336e-09
4.8607e-06
2.06338e-09
4.86028e-06
2.32676e-09
4.85973e-06
2.28416e-09
4.85929e-06
2.5675e-09
4.85872e-06
2.5445e-09
4.85828e-06
2.84934e-09
4.85771e-06
2.84729e-09
4.85728e-06
3.17308e-09
4.85673e-06
3.18963e-09
4.85635e-06
3.5265e-09
4.85589e-06
3.51617e-09
4.8555e-06
3.86718e-09
4.03311e-09
4.85501e-06
5.27079e-06
2.82559e-10
5.27058e-06
-7.24883e-11
5.27068e-06
2.94759e-10
5.27048e-06
-1.12684e-10
5.27061e-06
2.27252e-10
5.27046e-06
-1.64069e-10
5.27061e-06
1.95951e-10
5.27047e-06
-1.5596e-10
5.2706e-06
2.08528e-10
5.27046e-06
-1.3056e-10
5.27058e-06
2.27348e-10
5.27043e-06
-1.03809e-10
5.27054e-06
2.36701e-10
5.27039e-06
-9.19376e-11
5.27051e-06
2.26372e-10
5.27037e-06
-1.01501e-10
5.27049e-06
1.96228e-10
5.27036e-06
-1.27854e-10
5.27049e-06
1.55293e-10
5.27038e-06
-1.63467e-10
5.27051e-06
1.09717e-10
5.27041e-06
-1.99395e-10
5.27055e-06
6.87578e-11
5.27045e-06
-2.27582e-10
5.27059e-06
3.95603e-11
5.27051e-06
-2.40765e-10
5.27064e-06
2.8071e-11
5.27055e-06
-2.34582e-10
5.27068e-06
3.62694e-11
5.27059e-06
-2.08144e-10
5.2707e-06
6.38945e-11
5.2706e-06
-1.62962e-10
5.2707e-06
1.08636e-10
5.27058e-06
-1.04355e-10
5.27067e-06
1.66276e-10
5.27054e-06
-3.78366e-11
5.2706e-06
2.29659e-10
5.27046e-06
3.06018e-11
5.27051e-06
2.9039e-10
5.27036e-06
9.30354e-11
5.2704e-06
3.39409e-10
5.27024e-06
1.39845e-10
5.27027e-06
3.69949e-10
5.27012e-06
1.65605e-10
5.27015e-06
3.78343e-10
5.27e-06
1.69091e-10
5.27003e-06
3.63979e-10
5.26989e-06
1.51933e-10
5.26993e-06
3.34551e-10
5.2698e-06
1.2349e-10
5.26985e-06
2.97537e-10
5.26973e-06
9.07144e-11
5.26978e-06
2.60585e-10
5.26967e-06
6.18674e-11
5.26972e-06
2.31853e-10
5.26962e-06
4.43988e-11
5.26967e-06
2.18129e-10
5.26956e-06
4.34605e-11
5.26961e-06
2.23201e-10
5.2695e-06
6.14808e-11
5.26954e-06
2.47004e-10
5.26942e-06
9.4506e-11
5.26945e-06
2.82025e-10
5.26932e-06
1.36501e-10
5.26934e-06
3.22328e-10
5.26921e-06
1.80449e-10
5.26922e-06
3.60927e-10
5.26908e-06
2.19184e-10
5.26908e-06
3.91351e-10
5.26894e-06
2.47346e-10
5.26894e-06
4.09337e-10
5.2688e-06
2.62066e-10
5.26879e-06
4.12598e-10
5.26866e-06
2.62667e-10
5.26865e-06
4.04603e-10
5.26852e-06
2.54307e-10
5.26852e-06
3.90827e-10
5.2684e-06
2.42224e-10
5.2684e-06
3.75891e-10
5.26827e-06
2.31642e-10
5.26827e-06
3.65468e-10
5.26815e-06
2.27879e-10
5.26815e-06
3.64265e-10
5.26803e-06
2.34802e-10
5.26802e-06
3.75231e-10
5.2679e-06
2.53365e-10
5.26788e-06
3.95903e-10
5.26775e-06
2.7908e-10
5.26773e-06
4.21889e-10
5.2676e-06
3.08391e-10
5.26757e-06
4.49125e-10
5.26743e-06
3.36709e-10
5.2674e-06
4.73197e-10
5.26726e-06
3.60104e-10
5.26722e-06
4.90892e-10
5.26708e-06
3.76393e-10
5.26704e-06
5.00728e-10
5.2669e-06
3.85187e-10
5.26686e-06
5.04679e-10
5.26672e-06
3.89354e-10
5.26668e-06
5.0636e-10
5.26654e-06
3.92596e-10
5.26649e-06
5.08364e-10
5.26635e-06
3.97484e-10
5.26631e-06
5.133e-10
5.26617e-06
4.06293e-10
5.26612e-06
5.23021e-10
5.26597e-06
4.20393e-10
5.26592e-06
5.38118e-10
5.26578e-06
4.39035e-10
5.26572e-06
5.57093e-10
5.26557e-06
4.60606e-10
5.26551e-06
5.78273e-10
5.26535e-06
4.83611e-10
5.26529e-06
5.99919e-10
5.26513e-06
5.06194e-10
5.26506e-06
6.2028e-10
5.2649e-06
5.2688e-10
5.26482e-06
6.38239e-10
5.26466e-06
5.45031e-10
5.26458e-06
6.53706e-10
5.26442e-06
5.61039e-10
5.26434e-06
6.67697e-10
5.26417e-06
5.76166e-10
5.26409e-06
6.81793e-10
5.26392e-06
5.91901e-10
5.26383e-06
6.9734e-10
5.26366e-06
6.09407e-10
5.26357e-06
7.15107e-10
5.26339e-06
6.29343e-10
5.2633e-06
7.35426e-10
5.26312e-06
6.51816e-10
5.26302e-06
7.58173e-10
5.26283e-06
6.76495e-10
5.26273e-06
7.82859e-10
5.26254e-06
7.02778e-10
5.26243e-06
8.08842e-10
5.26224e-06
7.3003e-10
5.26212e-06
8.35552e-10
5.26192e-06
7.57787e-10
5.2618e-06
8.62673e-10
5.2616e-06
7.85888e-10
5.26147e-06
8.90218e-10
5.26127e-06
8.14496e-10
5.26113e-06
9.18501e-10
5.26092e-06
8.44038e-10
5.26078e-06
9.48044e-10
5.26057e-06
8.75087e-10
5.26042e-06
9.79447e-10
5.2602e-06
9.08227e-10
5.26005e-06
1.01324e-09
5.25982e-06
9.43904e-10
5.25967e-06
1.04976e-09
5.25943e-06
9.8234e-10
5.25927e-06
1.08913e-09
5.25903e-06
1.02361e-09
5.25885e-06
1.13139e-09
5.25861e-06
1.06777e-09
5.25843e-06
1.1766e-09
5.25817e-06
1.11488e-09
5.25798e-06
1.22486e-09
5.25772e-06
1.16511e-09
5.25752e-06
1.27643e-09
5.25724e-06
1.2188e-09
5.25704e-06
1.33175e-09
5.25675e-06
1.27649e-09
5.25653e-06
1.39145e-09
5.25624e-06
1.33886e-09
5.25601e-06
1.45626e-09
5.2557e-06
1.4067e-09
5.25546e-06
1.527e-09
5.25514e-06
1.4809e-09
5.25489e-06
1.60469e-09
5.25455e-06
1.56259e-09
5.25428e-06
1.6906e-09
5.25394e-06
1.65323e-09
5.25365e-06
1.78642e-09
5.25328e-06
1.75481e-09
5.25298e-06
1.89448e-09
5.25259e-06
1.86995e-09
5.25226e-06
2.01771e-09
5.25185e-06
2.00183e-09
5.25151e-06
2.15941e-09
5.25108e-06
2.15373e-09
5.25071e-06
2.32272e-09
5.25025e-06
2.32862e-09
5.24987e-06
2.51036e-09
5.2494e-06
2.52911e-09
5.249e-06
2.72481e-09
5.24853e-06
2.75755e-09
5.24813e-06
2.96809e-09
5.24766e-06
3.01549e-09
5.24727e-06
3.24082e-09
5.24681e-06
3.302e-09
5.24645e-06
3.53909e-09
5.24603e-06
3.60549e-09
5.24573e-06
3.82817e-09
5.24533e-06
3.91072e-09
5.24502e-06
4.17983e-09
4.37873e-09
5.24468e-06
5.69156e-06
1.81127e-10
5.69146e-06
3.16824e-11
5.69151e-06
2.42889e-10
5.69138e-06
1.97491e-11
5.69142e-06
1.83359e-10
5.69129e-06
-3.62863e-11
5.69135e-06
1.37321e-10
5.69125e-06
-5.72436e-11
5.69132e-06
1.41017e-10
5.69123e-06
-3.79974e-11
5.69129e-06
1.61177e-10
5.6912e-06
-1.52997e-11
5.69127e-06
1.74496e-10
5.69118e-06
-6.04046e-12
5.69124e-06
1.6434e-10
5.69116e-06
-1.9743e-11
5.69123e-06
1.26635e-10
5.69116e-06
-5.77593e-11
5.69124e-06
7.86181e-11
5.69118e-06
-1.062e-10
5.69126e-06
2.65076e-11
5.69122e-06
-1.53708e-10
5.69131e-06
-2.06443e-11
5.69127e-06
-1.89124e-10
5.69136e-06
-5.23334e-11
5.69132e-06
-2.04238e-10
5.69141e-06
-6.06179e-11
5.69137e-06
-1.95268e-10
5.69145e-06
-4.34586e-11
5.69141e-06
-1.61373e-10
5.69147e-06
-1.67143e-12
5.69141e-06
-1.04245e-10
5.69146e-06
5.91311e-11
5.69139e-06
-3.1578e-11
5.69142e-06
1.34744e-10
5.69133e-06
5.07401e-11
5.69135e-06
2.1514e-10
5.69124e-06
1.33288e-10
5.69125e-06
2.90161e-10
5.69113e-06
2.05222e-10
5.69112e-06
3.49465e-10
5.69101e-06
2.5665e-10
5.69099e-06
3.84614e-10
5.69088e-06
2.81605e-10
5.69086e-06
3.92188e-10
5.69075e-06
2.79321e-10
5.69074e-06
3.73054e-10
5.69064e-06
2.53214e-10
5.69064e-06
3.36886e-10
5.69055e-06
2.14351e-10
5.69055e-06
2.92114e-10
5.69047e-06
1.71838e-10
5.69048e-06
2.48894e-10
5.69041e-06
1.35859e-10
5.69042e-06
2.17216e-10
5.69035e-06
1.15478e-10
5.69037e-06
2.04865e-10
5.69029e-06
1.16633e-10
5.6903e-06
2.16023e-10
5.69022e-06
1.41298e-10
5.69022e-06
2.48453e-10
5.69013e-06
1.82694e-10
5.69012e-06
2.93866e-10
5.69002e-06
2.33854e-10
5.69e-06
3.44575e-10
5.68989e-06
2.85725e-10
5.68986e-06
3.91635e-10
5.68975e-06
3.29922e-10
5.68972e-06
4.27634e-10
5.6896e-06
3.60371e-10
5.68956e-06
4.47916e-10
5.68945e-06
3.74135e-10
5.68941e-06
4.50826e-10
5.68931e-06
3.71696e-10
5.68927e-06
4.41441e-10
5.68916e-06
3.59659e-10
5.68913e-06
4.25161e-10
5.68903e-06
3.43693e-10
5.689e-06
4.08284e-10
5.6889e-06
3.30491e-10
5.68886e-06
3.97642e-10
5.68877e-06
3.26457e-10
5.68873e-06
3.98833e-10
5.68863e-06
3.36109e-10
5.68859e-06
4.14561e-10
5.68849e-06
3.58794e-10
5.68844e-06
4.40977e-10
5.68833e-06
3.8996e-10
5.68828e-06
4.73678e-10
5.68816e-06
4.24838e-10
5.6881e-06
5.07195e-10
5.68798e-06
4.57738e-10
5.68792e-06
5.36146e-10
5.68779e-06
4.84022e-10
5.68773e-06
5.56967e-10
5.6876e-06
5.01455e-10
5.68754e-06
5.68634e-10
5.68741e-06
5.10353e-10
5.68734e-06
5.73726e-10
5.68722e-06
5.14449e-10
5.68715e-06
5.76146e-10
5.68702e-06
5.17615e-10
5.68695e-06
5.79284e-10
5.68683e-06
5.23158e-10
5.68675e-06
5.86282e-10
5.68662e-06
5.33766e-10
5.68655e-06
5.99225e-10
5.68642e-06
5.50661e-10
5.68634e-06
6.18344e-10
5.6862e-06
5.72852e-10
5.68612e-06
6.41959e-10
5.68598e-06
5.98623e-10
5.68589e-06
6.68087e-10
5.68575e-06
6.25808e-10
5.68565e-06
6.94457e-10
5.68551e-06
6.5216e-10
5.68541e-06
7.19037e-10
5.68526e-06
6.76024e-10
5.68516e-06
7.40669e-10
5.68501e-06
6.96825e-10
5.6849e-06
7.59425e-10
5.68475e-06
7.15201e-10
5.68464e-06
7.76539e-10
5.68448e-06
7.32708e-10
5.68437e-06
7.93774e-10
5.68421e-06
7.5112e-10
5.68409e-06
8.12724e-10
5.68393e-06
7.71805e-10
5.68381e-06
8.34405e-10
5.68365e-06
7.9548e-10
5.68352e-06
8.59188e-10
5.68335e-06
8.222e-10
5.68322e-06
8.86841e-10
5.68305e-06
8.51493e-10
5.68292e-06
9.16714e-10
5.68274e-06
8.82595e-10
5.6826e-06
9.48006e-10
5.68241e-06
9.14734e-10
5.68227e-06
9.80038e-10
5.68208e-06
9.47375e-10
5.68193e-06
1.01246e-09
5.68173e-06
9.80363e-10
5.68158e-06
1.04532e-09
5.68138e-06
1.01395e-09
5.68122e-06
1.07905e-09
5.68101e-06
1.04867e-09
5.68085e-06
1.11428e-09
5.68064e-06
1.08523e-09
5.68046e-06
1.1517e-09
5.68025e-06
1.12426e-09
5.68007e-06
1.19187e-09
5.67985e-06
1.16621e-09
5.67966e-06
1.23513e-09
5.67943e-06
1.21133e-09
5.67924e-06
1.28164e-09
5.679e-06
1.25972e-09
5.6788e-06
1.33146e-09
5.67856e-06
1.31143e-09
5.67835e-06
1.38466e-09
5.6781e-06
1.36656e-09
5.67788e-06
1.44139e-09
5.67762e-06
1.42532e-09
5.6774e-06
1.50195e-09
5.67713e-06
1.48812e-09
5.67689e-06
1.56682e-09
5.67662e-06
1.5555e-09
5.67637e-06
1.63665e-09
5.67608e-06
1.6282e-09
5.67583e-06
1.71224e-09
5.67552e-06
1.70711e-09
5.67526e-06
1.79458e-09
5.67494e-06
1.79329e-09
5.67466e-06
1.88481e-09
5.67434e-06
1.888e-09
5.67405e-06
1.98434e-09
5.67371e-06
1.9928e-09
5.6734e-06
2.09485e-09
5.67304e-06
2.1095e-09
5.67272e-06
2.2183e-09
5.67235e-06
2.2401e-09
5.67201e-06
2.35665e-09
5.67163e-06
2.38653e-09
5.67127e-06
2.51176e-09
5.67088e-06
2.55054e-09
5.67051e-06
2.68523e-09
5.67011e-06
2.73362e-09
5.66974e-06
2.87844e-09
5.66933e-06
2.93705e-09
5.66897e-06
3.09246e-09
5.66856e-06
3.16154e-09
5.6682e-06
3.32747e-09
5.66781e-06
3.40647e-09
5.66747e-06
3.58146e-09
5.6671e-06
3.66722e-09
5.6668e-06
3.84105e-09
5.66649e-06
3.92172e-09
5.6662e-06
4.11177e-09
5.66589e-06
4.21908e-09
5.66565e-06
4.42527e-09
4.62799e-09
5.6654e-06
6.14594e-06
1.15483e-10
6.1459e-06
7.16479e-11
6.14593e-06
2.12459e-10
6.14585e-06
9.90958e-11
6.14584e-06
1.86496e-10
6.14575e-06
6.08004e-11
6.14574e-06
1.46036e-10
6.14565e-06
3.5199e-11
6.14566e-06
1.29538e-10
6.14559e-06
3.27289e-11
6.14561e-06
1.36124e-10
6.14555e-06
4.34949e-11
6.14558e-06
1.4268e-10