/*--------------------------------*- C++ -*----------------------------------*\
| =========                 |                                                 |
| \\      /  F ield         | OpenFOAM: The Open Source CFD Toolbox           |
|  \\    /   O peration     | Version:  v1912                                 |
|   \\  /    A nd           | Website:  www.openfoam.com                      |
|    \\/     M anipulation  |                                                 |
\*---------------------------------------------------------------------------*/
FoamFile
{
    version     2.0;
    format      ascii;
    class       volVectorField;
    location    "1";
    object      U;
}
// * * * * * * * * * * * * * * * * * * * * * * * * * * * * * * * * * * * * * //

dimensions      [0 1 -1 0 0 0 0];


internalField   nonuniform List<vector> 
12000
(
(0.999435 8.71557e-05 0)
(1.00058 -9.42085e-05 0)
(0.999454 8.61058e-05 0)
(1.00059 -9.14171e-05 0)
(0.999458 8.79252e-05 0)
(1.00059 -8.91326e-05 0)
(0.999451 8.81499e-05 0)
(1.00057 -8.82994e-05 0)
(0.999437 8.74803e-05 0)
(1.00056 -8.78456e-05 0)
(0.999422 8.67987e-05 0)
(1.00054 -8.72971e-05 0)
(0.99941 8.62315e-05 0)
(1.00053 -8.66872e-05 0)
(0.999401 8.56987e-05 0)
(1.00052 -8.61225e-05 0)
(0.999396 8.5095e-05 0)
(1.00052 -8.56719e-05 0)
(0.999394 8.44173e-05 0)
(1.00052 -8.53304e-05 0)
(0.999394 8.3657e-05 0)
(1.00052 -8.50808e-05 0)
(0.999397 8.28585e-05 0)
(1.00052 -8.48529e-05 0)
(0.999402 8.20916e-05 0)
(1.00053 -8.45812e-05 0)
(0.999409 8.14119e-05 0)
(1.00054 -8.42255e-05 0)
(0.999417 8.08501e-05 0)
(1.00054 -8.3741e-05 0)
(0.999423 8.04487e-05 0)
(1.00055 -8.31325e-05 0)
(0.999427 8.02301e-05 0)
(1.00055 -8.234e-05 0)
(0.999427 8.02357e-05 0)
(1.00055 -8.13539e-05 0)
(0.999422 8.04378e-05 0)
(1.00054 -8.02368e-05 0)
(0.999412 8.07502e-05 0)
(1.00053 -7.90779e-05 0)
(0.999397 8.1079e-05 0)
(1.00052 -7.79758e-05 0)
(0.999376 8.13215e-05 0)
(1.00049 -7.70301e-05 0)
(0.999351 8.13986e-05 0)
(1.00047 -7.62961e-05 0)
(0.999324 8.12965e-05 0)
(1.00044 -7.57545e-05 0)
(0.999298 8.10704e-05 0)
(1.00042 -7.53184e-05 0)
(0.999273 8.07723e-05 0)
(1.0004 -7.49575e-05 0)
(0.999251 8.04452e-05 0)
(1.00038 -7.4642e-05 0)
(0.999233 8.01188e-05 0)
(1.00037 -7.43392e-05 0)
(0.999219 7.98335e-05 0)
(1.00036 -7.39884e-05 0)
(0.999209 7.96528e-05 0)
(1.00035 -7.35207e-05 0)
(0.9992 7.96494e-05 0)
(1.00034 -7.28762e-05 0)
(0.999188 7.98586e-05 0)
(1.00033 -7.20553e-05 0)
(0.999173 8.02479e-05 0)
(1.00032 -7.11243e-05 0)
(0.999153 8.07317e-05 0)
(1.0003 -7.01759e-05 0)
(0.999129 8.12153e-05 0)
(1.00028 -6.93014e-05 0)
(0.999101 8.16255e-05 0)
(1.00025 -6.8551e-05 0)
(0.99907 8.19301e-05 0)
(1.00023 -6.79407e-05 0)
(0.999037 8.21278e-05 0)
(1.0002 -6.74569e-05 0)
(0.999004 8.22473e-05 0)
(1.00017 -6.7058e-05 0)
(0.998971 8.23416e-05 0)
(1.00014 -6.66876e-05 0)
(0.99894 8.2468e-05 0)
(1.00012 -6.62925e-05 0)
(0.998913 8.26776e-05 0)
(1.0001 -6.58224e-05 0)
(0.998888 8.30185e-05 0)
(1.00008 -6.52331e-05 0)
(0.998863 8.35259e-05 0)
(1.00006 -6.45076e-05 0)
(0.998837 8.41949e-05 0)
(1.00004 -6.36755e-05 0)
(0.998808 8.49781e-05 0)
(1.00002 -6.2797e-05 0)
(0.998775 8.58129e-05 0)
(0.999987 -6.19291e-05 0)
(0.998738 8.66515e-05 0)
(0.999956 -6.11127e-05 0)
(0.998698 8.74636e-05 0)
(0.999923 -6.03674e-05 0)
(0.998657 8.82423e-05 0)
(0.999889 -5.96895e-05 0)
(0.998614 8.90041e-05 0)
(0.999854 -5.90531e-05 0)
(0.998572 8.97855e-05 0)
(0.999821 -5.84166e-05 0)
(0.99853 9.06298e-05 0)
(0.999789 -5.77405e-05 0)
(0.998489 9.15722e-05 0)
(0.999757 -5.69957e-05 0)
(0.998449 9.26376e-05 0)
(0.999726 -5.61648e-05 0)
(0.998407 9.38368e-05 0)
(0.999695 -5.52474e-05 0)
(0.998365 9.5162e-05 0)
(0.999661 -5.42606e-05 0)
(0.998319 9.65925e-05 0)
(0.999626 -5.32288e-05 0)
(0.998271 9.81046e-05 0)
(0.999588 -5.21757e-05 0)
(0.998221 9.96793e-05 0)
(0.999548 -5.11176e-05 0)
(0.998167 0.000101307 0)
(0.999506 -5.00602e-05 0)
(0.998112 0.000102989 0)
(0.999463 -4.89957e-05 0)
(0.998055 0.000104744 0)
(0.999419 -4.79035e-05 0)
(0.997998 0.000106596 0)
(0.999376 -4.67581e-05 0)
(0.99794 0.000108572 0)
(0.999332 -4.55371e-05 0)
(0.997881 0.000110694 0)
(0.999287 -4.42246e-05 0)
(0.99782 0.000112975 0)
(0.999242 -4.28118e-05 0)
(0.997757 0.000115424 0)
(0.999194 -4.12965e-05 0)
(0.997692 0.000118043 0)
(0.999145 -3.96797e-05 0)
(0.997625 0.000120833 0)
(0.999094 -3.79614e-05 0)
(0.997554 0.000123798 0)
(0.999041 -3.61378e-05 0)
(0.99748 0.000126949 0)
(0.998985 -3.41984e-05 0)
(0.997404 0.000130302 0)
(0.998928 -3.2125e-05 0)
(0.997325 0.000133884 0)
(0.998869 -2.98919e-05 0)
(0.997243 0.000137725 0)
(0.998808 -2.74681e-05 0)
(0.997159 0.000141861 0)
(0.998746 -2.48251e-05 0)
(0.997072 0.000146319 0)
(0.998681 -2.19523e-05 0)
(0.996982 0.000151095 0)
(0.998614 -1.88752e-05 0)
(0.996888 0.000156158 0)
(0.998545 -1.5617e-05 0)
(0.996791 0.000161509 0)
(0.998472 -1.21581e-05 0)
(0.996689 0.000167191 0)
(0.998397 -8.45208e-06 0)
(0.996583 0.000173258 0)
(0.998317 -4.44887e-06 0)
(0.996471 0.000179763 0)
(0.998234 -1.12021e-07 0)
(0.996355 0.000186733 0)
(0.998147 4.56381e-06 0)
(0.996232 0.000194168 0)
(0.998056 9.57325e-06 0)
(0.996104 0.000202081 0)
(0.997959 1.49454e-05 0)
(0.995969 0.000210531 0)
(0.997857 2.0758e-05 0)
(0.995825 0.000219626 0)
(0.997748 2.71273e-05 0)
(0.995673 0.000229505 0)
(0.997631 3.41985e-05 0)
(0.99551 0.000240335 0)
(0.997505 4.21431e-05 0)
(0.995335 0.000252311 0)
(0.997367 5.11653e-05 0)
(0.995147 0.000265669 0)
(0.997217 6.15193e-05 0)
(0.994942 0.000280713 0)
(0.997052 7.3552e-05 0)
(0.994717 0.000297883 0)
(0.996866 8.78138e-05 0)
(0.994467 0.000317925 0)
(0.996654 0.000105314 0)
(0.994185 0.000342283 0)
(0.996407 0.000128138 0)
(0.993859 0.000374113 0)
(0.996112 0.000161101 0)
(0.993472 0.000420848 0)
(0.995748 0.000215393 0)
(0.993002 0.000498936 0)
(0.995292 0.000314097 0)
(0.992425 0.000639386 0)
(0.994724 0.000496428 0)
(0.99975 8.37868e-05 0)
(1.00026 -9.84542e-05 0)
(0.999775 8.31052e-05 0)
(1.00027 -9.29425e-05 0)
(0.999782 8.85374e-05 0)
(1.00026 -8.866e-05 0)
(0.999777 9.02249e-05 0)
(1.00025 -8.78153e-05 0)
(0.999766 8.98574e-05 0)
(1.00023 -8.77486e-05 0)
(0.999755 8.94908e-05 0)
(1.00021 -8.74425e-05 0)
(0.999746 8.93507e-05 0)
(1.0002 -8.70797e-05 0)
(0.999741 8.91142e-05 0)
(1.00018 -8.69757e-05 0)
(0.999739 8.8543e-05 0)
(1.00018 -8.72573e-05 0)
(0.99974 8.76533e-05 0)
(1.00017 -8.78573e-05 0)
(0.999744 8.65233e-05 0)
(1.00017 -8.86479e-05 0)
(0.99975 8.53257e-05 0)
(1.00017 -8.94179e-05 0)
(0.999759 8.42833e-05 0)
(1.00017 -8.99532e-05 0)
(0.999769 8.35856e-05 0)
(1.00018 -9.01101e-05 0)
(0.99978 8.33385e-05 0)
(1.00018 -8.97879e-05 0)
(0.999791 8.36143e-05 0)
(1.00018 -8.89694e-05 0)
(0.999798 8.44644e-05 0)
(1.00018 -8.75651e-05 0)
(0.999802 8.59337e-05 0)
(1.00018 -8.56078e-05 0)
(0.999801 8.78967e-05 0)
(1.00017 -8.33008e-05 0)
(0.999794 9.00967e-05 0)
(1.00015 -8.09344e-05 0)
(0.999782 9.22225e-05 0)
(1.00013 -7.88353e-05 0)
(0.999765 9.39601e-05 0)
(1.0001 -7.72808e-05 0)
(0.999744 9.50894e-05 0)
(1.00007 -7.64174e-05 0)
(0.999721 9.55548e-05 0)
(1.00005 -7.62127e-05 0)
(0.999698 9.54821e-05 0)
(1.00002 -7.64624e-05 0)
(0.999677 9.50612e-05 0)
(0.999992 -7.69893e-05 0)
(0.999659 9.44945e-05 0)
(0.99997 -7.75967e-05 0)
(0.999646 9.39751e-05 0)
(0.999953 -7.80933e-05 0)
(0.999636 9.36965e-05 0)
(0.99994 -7.82688e-05 0)
(0.99963 9.38605e-05 0)
(0.999929 -7.79554e-05 0)
(0.999625 9.46254e-05 0)
(0.999918 -7.70233e-05 0)
(0.999618 9.60453e-05 0)
(0.999904 -7.55194e-05 0)
(0.999607 9.79642e-05 0)
(0.999886 -7.36858e-05 0)
(0.999592 0.000100095 0)
(0.999863 -7.18234e-05 0)
(0.999571 0.00010214 0)
(0.999836 -7.02171e-05 0)
(0.999548 0.000103862 0)
(0.999806 -6.90437e-05 0)
(0.999521 0.000105144 0)
(0.999774 -6.83649e-05 0)
(0.999493 0.000105976 0)
(0.99974 -6.81347e-05 0)
(0.999464 0.000106462 0)
(0.999707 -6.81909e-05 0)
(0.999436 0.00010681 0)
(0.999676 -6.83105e-05 0)
(0.999411 0.000107241 0)
(0.999647 -6.82854e-05 0)
(0.999388 0.000107949 0)
(0.999621 -6.79353e-05 0)
(0.999368 0.000109097 0)
(0.999598 -6.71338e-05 0)
(0.999349 0.000110765 0)
(0.999574 -6.58603e-05 0)
(0.999328 0.0001129 0)
(0.999548 -6.42416e-05 0)
(0.999305 0.000115323 0)
(0.999518 -6.24892e-05 0)
(0.999277 0.000117815 0)
(0.999484 -6.08089e-05 0)
(0.999246 0.000120202 0)
(0.999447 -5.93454e-05 0)
(0.999212 0.000122378 0)
(0.999408 -5.81579e-05 0)
(0.999176 0.000124333 0)
(0.999368 -5.7215e-05 0)
(0.999139 0.000126139 0)
(0.999328 -5.64106e-05 0)
(0.999103 0.000127931 0)
(0.999288 -5.55961e-05 0)
(0.999068 0.00012986 0)
(0.99925 -5.46345e-05 0)
(0.999034 0.000132047 0)
(0.999212 -5.34284e-05 0)
(0.999 0.000134568 0)
(0.999174 -5.19294e-05 0)
(0.998965 0.000137442 0)
(0.999135 -5.01505e-05 0)
(0.99893 0.000140629 0)
(0.999095 -4.81604e-05 0)
(0.998892 0.000144046 0)
(0.999052 -4.60534e-05 0)
(0.998851 0.000147599 0)
(0.999007 -4.39184e-05 0)
(0.998808 0.000151215 0)
(0.998959 -4.18151e-05 0)
(0.998763 0.000154857 0)
(0.998909 -3.97589e-05 0)
(0.998716 0.000158537 0)
(0.998857 -3.77187e-05 0)
(0.998668 0.000162308 0)
(0.998805 -3.56268e-05 0)
(0.998619 0.000166253 0)
(0.998753 -3.3399e-05 0)
(0.99857 0.000170458 0)
(0.9987 -3.09596e-05 0)
(0.99852 0.000174989 0)
(0.998646 -2.82596e-05 0)
(0.99847 0.000179884 0)
(0.998591 -2.5282e-05 0)
(0.998417 0.000185148 0)
(0.998534 -2.20347e-05 0)
(0.998363 0.000190771 0)
(0.998475 -1.85375e-05 0)
(0.998306 0.000196737 0)
(0.998413 -1.48079e-05 0)
(0.998246 0.000203037 0)
(0.998348 -1.08495e-05 0)
(0.998184 0.000209683 0)
(0.998281 -6.64469e-06 0)
(0.99812 0.000216709 0)
(0.998212 -2.15305e-06 0)
(0.998053 0.000224171 0)
(0.998141 2.68489e-06 0)
(0.997985 0.00023214 0)
(0.998068 7.93766e-06 0)
(0.997914 0.00024069 0)
(0.997992 1.36671e-05 0)
(0.997841 0.000249878 0)
(0.997914 1.99093e-05 0)
(0.997766 0.000259728 0)
(0.997833 2.66643e-05 0)
(0.997687 0.000270238 0)
(0.997749 3.39351e-05 0)
(0.997605 0.000281441 0)
(0.997662 4.17678e-05 0)
(0.99752 0.000293409 0)
(0.99757 5.02439e-05 0)
(0.99743 0.000306243 0)
(0.997475 5.94564e-05 0)
(0.997337 0.00032004 0)
(0.997375 6.94851e-05 0)
(0.997239 0.000334874 0)
(0.997271 8.03778e-05 0)
(0.997136 0.000350795 0)
(0.997161 9.21845e-05 0)
(0.997027 0.000367891 0)
(0.997045 0.000105024 0)
(0.996913 0.000386336 0)
(0.996923 0.000119107 0)
(0.996792 0.000406401 0)
(0.996794 0.000134732 0)
(0.996663 0.000428432 0)
(0.996656 0.00015227 0)
(0.996525 0.000452852 0)
(0.996508 0.000172171 0)
(0.996377 0.000480177 0)
(0.996349 0.000194996 0)
(0.996216 0.000511059 0)
(0.996176 0.000221481 0)
(0.996041 0.000546385 0)
(0.995987 0.000252679 0)
(0.995848 0.000587482 0)
(0.995779 0.000290261 0)
(0.995633 0.000636579 0)
(0.995545 0.000337235 0)
(0.995391 0.000697891 0)
(0.995282 0.0003995 0)
(0.995116 0.000779753 0)
(0.994983 0.000488625 0)
(0.994805 0.000898038 0)
(0.994646 0.000625839 0)
(0.994458 0.00108052 0)
(0.994278 0.000846322 0)
(0.994087 0.0013703 0)
(0.993893 0.00120073 0)
(0.999942 6.58639e-05 0)
(1.00007 -7.29432e-05 0)
(0.99997 6.56358e-05 0)
(1.00009 -6.88833e-05 0)
(0.999975 6.89505e-05 0)
(1.00008 -6.55933e-05 0)
(0.999967 6.98775e-05 0)
(1.00006 -6.45174e-05 0)
(0.999954 6.95933e-05 0)
(1.00005 -6.37573e-05 0)
(0.999941 6.94776e-05 0)
(1.00003 -6.27698e-05 0)
(0.99993 6.94273e-05 0)
(1.00002 -6.20366e-05 0)
(0.999923 6.88673e-05 0)
(1.00001 -6.20266e-05 0)
(0.999919 6.75266e-05 0)
(1 -6.2798e-05 0)
(0.999919 6.55152e-05 0)
(0.999999 -6.41336e-05 0)
(0.999921 6.31202e-05 0)
(0.999999 -6.56954e-05 0)
(0.999925 6.07144e-05 0)
(1 -6.70913e-05 0)
(0.999932 5.87014e-05 0)
(1.00001 -6.79375e-05 0)
(0.999941 5.74175e-05 0)
(1.00001 -6.79627e-05 0)
(0.999951 5.70653e-05 0)
(1.00002 -6.70286e-05 0)
(0.99996 5.77201e-05 0)
(1.00002 -6.50897e-05 0)
(0.999965 5.94168e-05 0)
(1.00002 -6.21399e-05 0)
(0.999968 6.21028e-05 0)
(1.00002 -5.83194e-05 0)
(0.999965 6.55306e-05 0)
(1.00001 -5.39867e-05 0)
(0.999957 6.92518e-05 0)
(0.999997 -4.96595e-05 0)
(0.999943 7.27066e-05 0)
(0.999977 -4.59081e-05 0)
(0.999924 7.53559e-05 0)
(0.999953 -4.31974e-05 0)
(0.999901 7.68323e-05 0)
(0.999926 -4.17723e-05 0)
(0.999876 7.70215e-05 0)
(0.999898 -4.16042e-05 0)
(0.999852 7.60984e-05 0)
(0.999872 -4.24026e-05 0)
(0.999829 7.44382e-05 0)
(0.999848 -4.37401e-05 0)
(0.999809 7.25003e-05 0)
(0.999828 -4.51358e-05 0)
(0.999793 7.07643e-05 0)
(0.999813 -4.61238e-05 0)
(0.999782 6.9669e-05 0)
(0.999802 -4.63017e-05 0)
(0.999775 6.95594e-05 0)
(0.999793 -4.54085e-05 0)
(0.999768 7.06341e-05 0)
(0.999784 -4.33305e-05 0)
(0.99976 7.28635e-05 0)
(0.999772 -4.02641e-05 0)
(0.999747 7.5894e-05 0)
(0.999756 -3.66722e-05 0)
(0.99973 7.92049e-05 0)
(0.999734 -3.30969e-05 0)
(0.999708 8.22649e-05 0)
(0.999709 -3.00271e-05 0)
(0.999682 8.46537e-05 0)
(0.99968 -2.77944e-05 0)
(0.999653 8.61422e-05 0)
(0.99965 -2.65213e-05 0)
(0.999623 8.67151e-05 0)
(0.999618 -2.61146e-05 0)
(0.999592 8.65864e-05 0)
(0.999587 -2.62423e-05 0)
(0.999563 8.617e-05 0)
(0.999557 -2.64521e-05 0)
(0.999535 8.59156e-05 0)
(0.99953 -2.63168e-05 0)
(0.999511 8.62206e-05 0)
(0.999507 -2.54832e-05 0)
(0.99949 8.73771e-05 0)
(0.999485 -2.37463e-05 0)
(0.999469 8.94808e-05 0)
(0.999463 -2.1136e-05 0)
(0.999447 9.23724e-05 0)
(0.999439 -1.79271e-05 0)
(0.999421 9.56989e-05 0)
(0.999412 -1.45097e-05 0)
(0.999392 9.90632e-05 0)
(0.99938 -1.12732e-05 0)
(0.999359 0.000102114 0)
(0.999344 -8.49694e-06 0)
(0.999323 0.00010466 0)
(0.999307 -6.27849e-06 0)
(0.999285 0.000106699 0)
(0.999268 -4.53441e-06 0)
(0.999247 0.000108394 0)
(0.99923 -3.03208e-06 0)
(0.999209 0.000110018 0)
(0.999192 -1.48604e-06 0)
(0.999172 0.00011185 0)
(0.999155 3.57597e-07 0)
(0.999136 0.000114111 0)
(0.99912 2.67506e-06 0)
(0.999101 0.000116927 0)
(0.999084 5.53709e-06 0)
(0.999065 0.000120312 0)
(0.999047 8.89977e-06 0)
(0.999028 0.000124172 0)
(0.999009 1.26241e-05 0)
(0.998988 0.000128338 0)
(0.998968 1.65256e-05 0)
(0.998946 0.000132625 0)
(0.998924 2.04311e-05 0)
(0.998902 0.000136887 0)
(0.998878 2.42298e-05 0)
(0.998854 0.000141058 0)
(0.99883 2.79028e-05 0)
(0.998806 0.000145168 0)
(0.99878 3.15226e-05 0)
(0.998756 0.000149326 0)
(0.99873 3.52241e-05 0)
(0.998706 0.000153684 0)
(0.998679 3.91609e-05 0)
(0.998655 0.00015839 0)
(0.998629 4.34634e-05 0)
(0.998604 0.000163551 0)
(0.998577 4.82076e-05 0)
(0.998552 0.000169213 0)
(0.998524 5.34086e-05 0)
(0.998498 0.000175368 0)
(0.998469 5.90355e-05 0)
(0.998442 0.000181972 0)
(0.998411 6.50361e-05 0)
(0.998384 0.000188975 0)
(0.998351 7.13638e-05 0)
(0.998323 0.000196343 0)
(0.998289 7.79991e-05 0)
(0.998259 0.000204076 0)
(0.998224 8.4961e-05 0)
(0.998194 0.000212217 0)
(0.998157 9.23072e-05 0)
(0.998126 0.000220839 0)
(0.998088 0.000100123 0)
(0.998056 0.00023004 0)
(0.998017 0.000108504 0)
(0.997984 0.000239913 0)
(0.997944 0.000117538 0)
(0.99791 0.000250544 0)
(0.997869 0.0001273 0)
(0.997833 0.000262004 0)
(0.99779 0.00013786 0)
(0.997754 0.000274368 0)
(0.997709 0.000149283 0)
(0.997671 0.000287701 0)
(0.997624 0.000161634 0)
(0.997584 0.000302076 0)
(0.997536 0.00017499 0)
(0.997494 0.000317584 0)
(0.997443 0.000189448 0)
(0.997399 0.000334334 0)
(0.997346 0.000205122 0)
(0.997301 0.00035245 0)
(0.997245 0.000222142 0)
(0.997197 0.000372082 0)
(0.997139 0.000240677 0)
(0.997088 0.000393437 0)
(0.997027 0.000260968 0)
(0.996974 0.000416805 0)
(0.996909 0.000283349 0)
(0.996853 0.000442572 0)
(0.996784 0.000308252 0)
(0.996724 0.000471231 0)
(0.996652 0.000336222 0)
(0.996587 0.000503396 0)
(0.99651 0.000367943 0)
(0.996441 0.000539849 0)
(0.996357 0.000404307 0)
(0.996283 0.000581638 0)
(0.996193 0.000446547 0)
(0.996111 0.000630258 0)
(0.996014 0.000496493 0)
(0.995925 0.000688002 0)
(0.995819 0.000557045 0)
(0.995721 0.000758599 0)
(0.995605 0.000632992 0)
(0.995498 0.000848202 0)
(0.995373 0.000732126 0)
(0.995256 0.000966486 0)
(0.995123 0.000866095 0)
(0.995 0.00112701 0)
(0.994861 0.00105005 0)
(0.994736 0.00134594 0)
(0.994597 0.00130036 0)
(0.994475 0.00163884 0)
(0.994342 0.00163075 0)
(0.999995 4.76989e-05 0)
(1.00002 -3.97781e-05 0)
(1.00002 4.87425e-05 0)
(1.00004 -4.04043e-05 0)
(1.00003 4.63006e-05 0)
(1.00003 -4.13377e-05 0)
(1.00002 4.50334e-05 0)
(1.00002 -4.07298e-05 0)
(1 4.52362e-05 0)
(1 -3.89935e-05 0)
(0.999987 4.61463e-05 0)
(0.999987 -3.7082e-05 0)
(0.999974 4.67314e-05 0)
(0.999976 -3.59976e-05 0)
(0.999966 4.61687e-05 0)
(0.999967 -3.6288e-05 0)
(0.99996 4.42304e-05 0)
(0.999962 -3.78756e-05 0)
(0.999958 4.12194e-05 0)
(0.99996 -4.03023e-05 0)
(0.999959 3.76939e-05 0)
(0.999961 -4.29556e-05 0)
(0.999962 3.42903e-05 0)
(0.999964 -4.52038e-05 0)
(0.999969 3.1614e-05 0)
(0.99997 -4.64936e-05 0)
(0.999977 3.01372e-05 0)
(0.999977 -4.64394e-05 0)
(0.999986 3.01461e-05 0)
(0.999984 -4.48581e-05 0)
(0.999994 3.17317e-05 0)
(0.99999 -4.17332e-05 0)
(1 3.48473e-05 0)
(0.999992 -3.71896e-05 0)
(1 3.92803e-05 0)
(0.99999 -3.15364e-05 0)
(0.999998 4.46127e-05 0)
(0.999982 -2.53112e-05 0)
(0.999989 5.01921e-05 0)
(0.999969 -1.92508e-05 0)
(0.999975 5.52282e-05 0)
(0.99995 -1.41547e-05 0)
(0.999954 5.89589e-05 0)
(0.999926 -1.06908e-05 0)
(0.99993 6.08601e-05 0)
(0.999899 -9.20559e-06 0)
(0.999904 6.07855e-05 0)
(0.999872 -9.62619e-06 0)
(0.999878 5.9027e-05 0)
(0.999846 -1.14777e-05 0)
(0.999854 5.61877e-05 0)
(0.999822 -1.40708e-05 0)
(0.999834 5.30116e-05 0)
(0.999803 -1.66298e-05 0)
(0.999818 5.02882e-05 0)
(0.999789 -1.83799e-05 0)
(0.999807 4.8739e-05 0)
(0.999779 -1.86946e-05 0)
(0.999799 4.88598e-05 0)
(0.999772 -1.72223e-05 0)
(0.999792 5.0839e-05 0)
(0.999764 -1.39662e-05 0)
(0.999783 5.44506e-05 0)
(0.999753 -9.36915e-06 0)
(0.999771 5.90942e-05 0)
(0.999737 -4.14136e-06 0)
(0.999753 6.3992e-05 0)
(0.999716 9.20182e-07 0)
(0.99973 6.83759e-05 0)
(0.999691 5.12465e-06 0)
(0.999703 7.16572e-05 0)
(0.999663 8.01203e-06 0)
(0.999674 7.3524e-05 0)
(0.999632 9.43402e-06 0)
(0.999642 7.40051e-05 0)
(0.999601 9.59898e-06 0)
(0.999611 7.34795e-05 0)
(0.999569 9.02674e-06 0)
(0.99958 7.25628e-05 0)
(0.999541 8.38966e-06 0)
(0.999553 7.19461e-05 0)
(0.999515 8.36211e-06 0)
(0.999529 7.22531e-05 0)
(0.999492 9.48029e-06 0)
(0.999507 7.38943e-05 0)
(0.999472 1.19972e-05 0)
(0.999486 7.69343e-05 0)
(0.999451 1.57753e-05 0)
(0.999464 8.10582e-05 0)
(0.999427 2.03616e-05 0)
(0.999439 8.57197e-05 0)
(0.9994 2.51652e-05 0)
(0.999409 9.03229e-05 0)
(0.999369 2.96148e-05 0)
(0.999375 9.43615e-05 0)
(0.999334 3.33171e-05 0)
(0.999338 9.75798e-05 0)
(0.999296 3.61627e-05 0)
(0.999299 0.000100015 0)
(0.999258 3.83236e-05 0)
(0.999261 0.000101955 0)
(0.99922 4.01716e-05 0)
(0.999222 0.000103814 0)
(0.999182 4.21297e-05 0)
(0.999185 0.000105999 0)
(0.999147 4.45675e-05 0)
(0.99915 0.000108824 0)
(0.999111 4.77306e-05 0)
(0.999114 0.000112455 0)
(0.999076 5.16939e-05 0)
(0.999078 0.000116879 0)
(0.999041 5.63615e-05 0)
(0.999041 0.000121929 0)
(0.999003 6.15132e-05 0)
(0.999002 0.000127349 0)
(0.998962 6.68713e-05 0)
(0.998959 0.000132861 0)
(0.998919 7.21825e-05 0)
(0.998914 0.000138256 0)
(0.998873 7.72952e-05 0)
(0.998867 0.000143453 0)
(0.998825 8.22017e-05 0)
(0.998817 0.000148516 0)
(0.998776 8.70316e-05 0)
(0.998768 0.000153627 0)
(0.998726 9.19988e-05 0)
(0.998717 0.000159014 0)
(0.998676 9.73278e-05 0)
(0.998667 0.000164884 0)
(0.998626 0.000103192 0)
(0.998616 0.000171371 0)
(0.998575 0.00010968 0)
(0.998564 0.000178519 0)
(0.998523 0.000116797 0)
(0.99851 0.000186299 0)
(0.998468 0.000124483 0)
(0.998455 0.000194633 0)
(0.998411 0.000132651 0)
(0.998396 0.000203439 0)
(0.998352 0.00014123 0)
(0.998336 0.000212663 0)
(0.99829 0.000150189 0)
(0.998272 0.000222305 0)
(0.998226 0.000159557 0)
(0.998207 0.000232422 0)
(0.99816 0.000169415 0)
(0.998139 0.00024312 0)
(0.998092 0.000179884 0)
(0.99807 0.000254529 0)
(0.998022 0.000191098 0)
(0.997999 0.000266783 0)
(0.99795 0.000203182 0)
(0.997925 0.000280001 0)
(0.997875 0.000216246 0)
(0.997849 0.000294288 0)
(0.997798 0.000230387 0)
(0.99777 0.000309733 0)
(0.997718 0.000245687 0)
(0.997689 0.000326418 0)
(0.997634 0.000262224 0)
(0.997603 0.000344426 0)
(0.997547 0.000280089 0)
(0.997514 0.000363862 0)
(0.997456 0.000299403 0)
(0.997421 0.000384869 0)
(0.997361 0.000320326 0)
(0.997324 0.000407632 0)
(0.997262 0.000343069 0)
(0.997222 0.000432396 0)
(0.997158 0.000367907 0)
(0.997116 0.000459473 0)
(0.997049 0.000395191 0)
(0.997004 0.000489261 0)
(0.996934 0.000425366 0)
(0.996886 0.000522264 0)
(0.996813 0.000458991 0)
(0.996761 0.000559108 0)
(0.996685 0.000496769 0)
(0.996629 0.000600593 0)
(0.996548 0.000539604 0)
(0.996489 0.000647761 0)
(0.996403 0.000588709 0)
(0.996338 0.000702042 0)
(0.996248 0.000645777 0)
(0.996178 0.000765474 0)
(0.996081 0.000713269 0)
(0.996006 0.000841042 0)
(0.995904 0.000794787 0)
(0.995823 0.000933061 0)
(0.995715 0.000895398 0)
(0.99563 0.00104735 0)
(0.995518 0.00102159 0)
(0.99543 0.00119092 0)
(0.995317 0.00118067 0)
(0.995228 0.0013711 0)
(0.995116 0.00137967 0)
(0.99503 0.00159425 0)
(0.994921 0.00162388 0)
(0.994841 0.00186421 0)
(0.994739 0.0019153 0)
(1 3.22517e-05 0)
(1.00001 -1.4142e-05 0)
(1.00002 3.5641e-05 0)
(1.00002 -1.75208e-05 0)
(1.00003 2.90275e-05 0)
(1.00002 -2.26323e-05 0)
(1.00002 2.53044e-05 0)
(1.00001 -2.32331e-05 0)
(1 2.58718e-05 0)
(0.999993 -2.07001e-05 0)
(0.999989 2.818e-05 0)
(0.999979 -1.77891e-05 0)
(0.999976 2.97938e-05 0)
(0.999967 -1.63656e-05 0)
(0.999966 2.94816e-05 0)
(0.999959 -1.70651e-05 0)
(0.99996 2.71067e-05 0)
(0.999954 -1.96472e-05 0)
(0.999958 2.32009e-05 0)
(0.999952 -2.33677e-05 0)
(0.999958 1.864e-05 0)
(0.999952 -2.72913e-05 0)
(0.999962 1.43654e-05 0)
(0.999956 -3.0511e-05 0)
(0.999968 1.12102e-05 0)
(0.999963 -3.22913e-05 0)
(0.999977 9.79983e-06 0)
(0.999971 -3.21331e-05 0)
(0.999986 1.04937e-05 0)
(0.999979 -2.98188e-05 0)
(0.999995 1.33742e-05 0)
(0.999985 -2.53936e-05 0)
(1 1.82733e-05 0)
(0.999987 -1.91437e-05 0)
(1 2.47845e-05 0)
(0.999986 -1.15927e-05 0)
(1 3.22648e-05 0)
(0.999979 -3.49565e-06 0)
(0.999991 3.9846e-05 0)
(0.999965 4.17019e-06 0)
(0.999976 4.64819e-05 0)
(0.999946 1.03595e-05 0)
(0.999955 5.12025e-05 0)
(0.999921 1.42462e-05 0)
(0.999929 5.3385e-05 0)
(0.999894 1.54571e-05 0)
(0.999902 5.29317e-05 0)
(0.999866 1.41768e-05 0)
(0.999876 5.02956e-05 0)
(0.999839 1.10895e-05 0)
(0.999852 4.63161e-05 0)
(0.999816 7.14138e-06 0)
(0.999831 4.20232e-05 0)
(0.999797 3.41665e-06 0)
(0.999816 3.85249e-05 0)
(0.999783 9.99625e-07 0)
(0.999805 3.68204e-05 0)
(0.999774 7.37268e-07 0)
(0.999798 3.75454e-05 0)
(0.999767 3.01133e-06 0)
(0.999792 4.07957e-05 0)
(0.99976 7.61755e-06 0)
(0.999784 4.60849e-05 0)
(0.99975 1.38403e-05 0)
(0.999772 5.25312e-05 0)
(0.999735 2.06874e-05 0)
(0.999754 5.90836e-05 0)
(0.999714 2.71129e-05 0)
(0.999731 6.47609e-05 0)
(0.999688 3.2248e-05 0)
(0.999703 6.88453e-05 0)
(0.999659 3.55566e-05 0)
(0.999673 7.10053e-05 0)
(0.999627 3.69294e-05 0)
(0.999641 7.13671e-05 0)
(0.999595 3.67293e-05 0)
(0.999609 7.04895e-05 0)
(0.999564 3.56584e-05 0)
(0.999579 6.91845e-05 0)
(0.999535 3.46092e-05 0)
(0.999551 6.83868e-05 0)
(0.99951 3.45037e-05 0)
(0.999528 6.89387e-05 0)
(0.999489 3.60407e-05 0)
(0.999507 7.13374e-05 0)
(0.999469 3.94715e-05 0)
(0.999487 7.55648e-05 0)
(0.999449 4.45174e-05 0)
(0.999465 8.11261e-05 0)
(0.999426 5.05269e-05 0)
(0.99944 8.7263e-05 0)
(0.999398 5.66849e-05 0)
(0.99941 9.31625e-05 0)
(0.999367 6.22487e-05 0)
(0.999375 9.82037e-05 0)
(0.999331 6.67538e-05 0)
(0.999338 0.000102108 0)
(0.999293 7.01218e-05 0)
(0.999299 0.000104991 0)
(0.999255 7.26428e-05 0)
(0.99926 0.000107277 0)
(0.999216 7.48225e-05 0)
(0.999222 0.000109513 0)
(0.99918 7.72191e-05 0)
(0.999185 0.000112235 0)
(0.999144 8.03127e-05 0)
(0.99915 0.000115843 0)
(0.99911 8.44022e-05 0)
(0.999115 0.000120519 0)
(0.999075 8.95486e-05 0)
(0.99908 0.000126205 0)
(0.99904 9.55876e-05 0)
(0.999043 0.00013265 0)
(0.999002 0.000102205 0)
(0.999004 0.000139499 0)
(0.998962 0.000109025 0)
(0.998961 0.000146387 0)
(0.998919 0.000115724 0)
(0.998916 0.000153052 0)
(0.998873 0.000122123 0)
(0.998868 0.000159415 0)
(0.998825 0.000128242 0)
(0.998819 0.00016559 0)
(0.998776 0.000134279 0)
(0.99877 0.000171837 0)
(0.998726 0.000140527 0)
(0.99872 0.00017846 0)
(0.998677 0.000147281 0)
(0.99867 0.000185722 0)
(0.998627 0.000154755 0)
(0.998619 0.000193782 0)
(0.998577 0.000163046 0)
(0.998568 0.000202677 0)
(0.998525 0.000172137 0)
(0.998515 0.000212346 0)
(0.998471 0.000181934 0)
(0.99846 0.000222674 0)
(0.998415 0.000192314 0)
(0.998402 0.000233544 0)
(0.998357 0.000203178 0)
(0.998341 0.000244888 0)
(0.998295 0.000214491 0)
(0.998279 0.000256706 0)
(0.998232 0.000226294 0)
(0.998214 0.000269081 0)
(0.998166 0.0002387 0)
(0.998147 0.000282153 0)
(0.998099 0.000251869 0)
(0.998078 0.000296093 0)
(0.99803 0.000265975 0)
(0.998008 0.000311072 0)
(0.997959 0.000281182 0)
(0.997936 0.000327244 0)
(0.997885 0.000297627 0)
(0.997861 0.000344734 0)
(0.99781 0.000315421 0)
(0.997784 0.00036364 0)
(0.997731 0.000334655 0)
(0.997703 0.000384052 0)
(0.997649 0.000355417 0)
(0.997619 0.000406065 0)
(0.997564 0.000377817 0)
(0.997532 0.000429811 0)
(0.997475 0.000402008 0)
(0.997441 0.000455469 0)
(0.997382 0.000428202 0)
(0.997346 0.000483291 0)
(0.997285 0.000456683 0)
(0.997247 0.000513598 0)
(0.997185 0.000487814 0)
(0.997144 0.000546795 0)
(0.997079 0.000522039 0)
(0.997036 0.000583372 0)
(0.996969 0.000559896 0)
(0.996923 0.000623928 0)
(0.996853 0.00060205 0)
(0.996804 0.000669204 0)
(0.996731 0.000649334 0)
(0.996678 0.000720145 0)
(0.996602 0.000702819 0)
(0.996546 0.000777984 0)
(0.996466 0.000763928 0)
(0.996407 0.00084437 0)
(0.996323 0.000834573 0)
(0.99626 0.000921514 0)
(0.996173 0.000917284 0)
(0.996107 0.00101228 0)
(0.996017 0.00101526 0)
(0.995949 0.00112017 0)
(0.995857 0.0011322 0)
(0.995787 0.00124901 0)
(0.995695 0.00127197 0)
(0.995626 0.00140255 0)
(0.995535 0.00143808 0)
(0.995468 0.00158395 0)
(0.995381 0.00163317 0)
(0.995318 0.00179521 0)
(0.995236 0.00185852 0)
(0.99518 0.00203677 0)
(0.995104 0.00211365 0)
(1 2.11239e-05 0)
(1.00001 -6.1448e-08 0)
(1.00002 2.73865e-05 0)
(1.00002 -2.20043e-06 0)
(1.00002 2.08632e-05 0)
(1.00001 -8.68626e-06 0)
(1.00001 1.57146e-05 0)
(1 -1.08222e-05 0)
(0.999997 1.56229e-05 0)
(0.99999 -8.70697e-06 0)
(0.999983 1.82705e-05 0)
(0.999976 -5.54797e-06 0)
(0.999969 2.04565e-05 0)
(0.999963 -4.01051e-06 0)
(0.999959 2.0302e-05 0)
(0.999954 -5.16158e-06 0)
(0.999952 1.74609e-05 0)
(0.999949 -8.75588e-06 0)
(0.999949 1.26207e-05 0)
(0.999946 -1.38064e-05 0)
(0.999949 6.96439e-06 0)
(0.999947 -1.90385e-05 0)
(0.999953 1.76326e-06 0)
(0.999952 -2.32447e-05 0)
(0.99996 -1.87324e-06 0)
(0.999959 -2.54511e-05 0)
(0.999969 -3.14125e-06 0)
(0.999968 -2.50489e-05 0)
(0.999979 -1.62996e-06 0)
(0.999977 -2.18167e-05 0)
(0.999989 2.69548e-06 0)
(0.999984 -1.58904e-05 0)
(0.999995 9.52847e-06 0)
(0.999987 -7.74337e-06 0)
(0.999998 1.82491e-05 0)
(0.999986 1.87179e-06 0)
(0.999995 2.79678e-05 0)
(0.999979 1.19234e-05 0)
(0.999986 3.75232e-05 0)
(0.999965 2.11477e-05 0)
(0.99997 4.56036e-05 0)
(0.999945 2.82746e-05 0)
(0.999948 5.10702e-05 0)
(0.999919 3.23801e-05 0)
(0.999922 5.32805e-05 0)
(0.99989 3.31464e-05 0)
(0.999894 5.22552e-05 0)
(0.999861 3.09188e-05 0)
(0.999866 4.86315e-05 0)
(0.999834 2.65782e-05 0)
(0.999842 4.34866e-05 0)
(0.999811 2.13497e-05 0)
(0.999821 3.81561e-05 0)
(0.999792 1.66432e-05 0)
(0.999806 3.4065e-05 0)
(0.999779 1.38253e-05 0)
(0.999797 3.24396e-05 0)
(0.999771 1.3899e-05 0)
(0.999791 3.39836e-05 0)
(0.999766 1.72103e-05 0)
(0.999787 3.86527e-05 0)
(0.99976 2.33317e-05 0)
(0.99978 4.56985e-05 0)
(0.99975 3.12687e-05 0)
(0.999767 5.39405e-05 0)
(0.999735 3.97268e-05 0)
(0.999749 6.20508e-05 0)
(0.999714 4.74208e-05 0)
(0.999725 6.88546e-05 0)
(0.999687 5.33427e-05 0)
(0.999697 7.35536e-05 0)
(0.999657 5.69357e-05 0)
(0.999666 7.58555e-05 0)
(0.999625 5.81841e-05 0)
(0.999633 7.60187e-05 0)
(0.999592 5.75975e-05 0)
(0.9996 7.47628e-05 0)
(0.99956 5.60688e-05 0)
(0.99957 7.3123e-05 0)
(0.999532 5.4734e-05 0)
(0.999544 7.22758e-05 0)
(0.999507 5.47341e-05 0)
(0.999521 7.324e-05 0)
(0.999487 5.68816e-05 0)
(0.999501 7.65502e-05 0)
(0.999468 6.13859e-05 0)
(0.999482 8.208e-05 0)
(0.999449 6.78195e-05 0)
(0.999461 8.9154e-05 0)
(0.999426 7.53161e-05 0)
(0.999436 9.67803e-05 0)
(0.999399 8.28349e-05 0)
(0.999406 0.00010395 0)
(0.999366 8.94778e-05 0)
(0.999371 0.000109938 0)
(0.99933 9.47382e-05 0)
(0.999333 0.000114483 0)
(0.999292 9.86022e-05 0)
(0.999293 0.000117801 0)
(0.999253 0.000101484 0)
(0.999254 0.000120452 0)
(0.999214 0.000104035 0)
(0.999216 0.000123132 0)
(0.999178 0.000106951 0)
(0.99918 0.000126497 0)
(0.999143 0.000110812 0)
(0.999146 0.000131016 0)
(0.99911 0.000115952 0)
(0.999112 0.000136874 0)
(0.999076 0.000122403 0)
(0.999077 0.000143958 0)
(0.999041 0.000129924 0)
(0.999041 0.000151924 0)
(0.999004 0.000138095 0)
(0.999002 0.000160303 0)
(0.998964 0.000146437 0)
(0.998959 0.000168644 0)
(0.99892 0.000154557 0)
(0.998914 0.000176643 0)
(0.998874 0.000162266 0)
(0.998866 0.000184239 0)
(0.998826 0.000169627 0)
(0.998817 0.000191606 0)
(0.998777 0.00017691 0)
(0.998768 0.000199087 0)
(0.998728 0.000184497 0)
(0.998718 0.000207069 0)
(0.998679 0.00019275 0)
(0.998669 0.000215867 0)
(0.998631 0.000201923 0)
(0.99862 0.000225662 0)
(0.998581 0.000212114 0)
(0.998569 0.000236474 0)
(0.99853 0.000223279 0)
(0.998517 0.000248207 0)
(0.998477 0.000235279 0)
(0.998462 0.000260698 0)
(0.998422 0.00024795 0)
(0.998405 0.000273797 0)
(0.998363 0.000261169 0)
(0.998345 0.00028742 0)
(0.998303 0.000274896 0)
(0.998283 0.000301579 0)
(0.99824 0.000289193 0)
(0.998219 0.000316382 0)
(0.998175 0.00030421 0)
(0.998153 0.00033201 0)
(0.998109 0.00032015 0)
(0.998086 0.000348679 0)
(0.998041 0.000337227 0)
(0.998017 0.000366598 0)
(0.997972 0.000355639 0)
(0.997946 0.000385944 0)
(0.9979 0.00037554 0)
(0.997873 0.000406854 0)
(0.997826 0.000397049 0)
(0.997797 0.000429429 0)
(0.997749 0.000420257 0)
(0.997719 0.000453762 0)
(0.997669 0.000445262 0)
(0.997637 0.000479962 0)
(0.997586 0.000472191 0)
(0.997552 0.000508183 0)
(0.9975 0.00050123 0)
(0.997464 0.000538649 0)
(0.99741 0.000532641 0)
(0.997372 0.000571661 0)
(0.997317 0.000566767 0)
(0.997277 0.000607604 0)
(0.99722 0.000604031 0)
(0.997178 0.000646946 0)
(0.997119 0.000644945 0)