/*--------------------------------*- C++ -*----------------------------------*\
| =========                 |                                                 |
| \\      /  F ield         | OpenFOAM: The Open Source CFD Toolbox           |
|  \\    /   O peration     | Version:  v1912                                 |
|   \\  /    A nd           | Website:  www.openfoam.com                      |
|    \\/     M anipulation  |                                                 |
\*---------------------------------------------------------------------------*/
FoamFile
{
    version     2.0;
    format      ascii;
    class       volScalarField;
    location    "0.6";
    object      p;
}
// * * * * * * * * * * * * * * * * * * * * * * * * * * * * * * * * * * * * * //

dimensions      [0 2 -2 0 0 0 0];


internalField   nonuniform List<scalar> 
12000
(
2.76514e-08
-1.10648e-05
-1.88422e-05
-2.24298e-05
-2.20151e-05
-1.75018e-05
-9.98822e-06
-1.55452e-07
1.04429e-05
2.10886e-05
3.06051e-05
3.88027e-05
4.50568e-05
4.95996e-05
5.21268e-05
5.30428e-05
5.21373e-05
4.9807e-05
4.58077e-05
4.05001e-05
3.3665e-05
2.57367e-05
1.6664e-05
7.08616e-06
-2.78891e-06
-1.21697e-05
-2.07806e-05
-2.78466e-05
-3.3129e-05
-3.59602e-05
-3.62288e-05
-3.34417e-05
-2.77052e-05
-1.88138e-05
-7.15925e-06
7.15708e-06
2.34734e-05
4.14144e-05
6.00459e-05
7.86897e-05
9.63065e-05
0.000112267
0.00012573
0.000136359
0.000143711
0.000147872
0.000148863
0.000147254
0.000143618
0.000138934
0.000134058
0.000130096
0.000127896
0.000128377
0.000132058
0.000139416
0.000150463
0.000165099
0.000182795
0.000202905
0.000224388
0.000246169
0.000267032
0.000285974
0.000302097
0.000314913
0.00032417
0.000330094
0.000333182
0.000334284
0.000334356
0.000334533
0.000335902
0.000339516
0.000346127
0.000356268
0.000370063
0.00038734
0.000407518
0.0004298
0.000453113
0.000476358
0.000498397
0.000518337
0.000535487
0.000549583
0.00056066
0.000569193
0.000575875
0.000581691
0.000587652
0.000594829
0.000604087
0.000616129
0.000631274
0.00064958
0.000670678
0.000693998
0.000718652
0.00074373
0.000768222
0.000791342
0.000812423
0.000831209
0.000847647
0.000862121
0.000875152
0.000887568
0.000900157
0.00091381
0.000929168
0.000946803
0.000966891
0.000989467
0.00101415
0.0010405
0.00106775
0.00109525
0.00112225
0.00114824
0.0011728
0.00119587
0.00121748
0.00123807
0.00125803
0.00127806
0.00129867
0.00132051
0.00134389
0.00136916
0.00139625
0.00142513
0.00145538
0.0014867
0.00151848
0.00155039
0.00158191
0.00161292
0.00164315
0.0016728
0.00170192
0.00173098
0.00176019
0.00179012
0.00182095
0.00185315
0.00188671
0.00192187
0.00195836
0.00199623
0.00203502
0.00207468
0.0021147
0.00215511
0.00219553
0.00223617
0.00227684
0.00231792
0.00235935
0.00240163
0.00244473
0.00248914
0.00253477
0.00258204
0.00263069
0.00268108
0.00273282
0.00278618
0.00284053
0.00289645
0.00295351
0.00301206
0.00307179
0.0031332
0.00319607
0.00326102
0.00332786
0.00339728
0.00346912
0.00354406
0.00362193
0.00370342
0.00378836
0.0038775
0.00397069
0.00406883
0.00417192
0.00428109
0.0043966
0.00452
0.00465197
0.00479463
0.00494928
0.00511884
0.00530533
0.00551246
0.00574267
0.00599974
0.0062851
0.00660033
3.0834e-06
-1.09393e-05
-1.974e-05
-2.35485e-05
-2.27364e-05
-1.79451e-05
-1.0072e-05
-1.76245e-07
1.05525e-05
2.11284e-05
3.07188e-05
3.88577e-05
4.52081e-05
4.97141e-05
5.23476e-05
5.32356e-05
5.24221e-05
5.00408e-05
4.60982e-05
4.07007e-05
3.38733e-05
2.58258e-05
1.67354e-05
7.04798e-06
-2.85046e-06
-1.23616e-05
-2.10242e-05
-2.82273e-05
-3.35578e-05
-3.64988e-05
-3.67667e-05
-3.40306e-05
-2.82194e-05
-1.9303e-05
-7.51474e-06
6.88647e-06
2.33599e-05
4.13551e-05
6.00642e-05
7.87204e-05
9.64086e-05
0.000112385
0.000125911
0.000136516
0.000143886
0.00014797
0.000148946
0.00014724
0.000143526
0.000138687
0.000133719
0.000129616
0.000127358
0.000127755
0.000131475
0.000138842
0.000150022
0.000164757
0.000182621
0.000202793
0.000224368
0.000246148
0.000267061
0.000285977
0.00030215
0.000314919
0.000324199
0.000330031
0.000333068
0.000333999
0.000333966
0.000333981
0.000335305
0.00033883
0.000345495
0.000355653
0.000369593
0.000386939
0.000407271
0.000429598
0.000453018
0.000476251
0.00049835
0.000518227
0.000535402
0.000549393
0.000560445
0.000568818
0.000575433
0.000581076
0.00058699
0.000594051
0.000603338
0.00061534
0.000630586
0.000648904
0.000670133
0.000693472
0.000718243
0.0007433
0.00076786
0.000790901
0.000812003
0.00083066
0.000847077
0.000861386
0.000874375
0.000886625
0.000899192
0.000912717
0.000928104
0.000945662
0.000965826
0.000988362
0.00101315
0.00103945
0.00106679
0.00109423
0.00112127
0.00114715
0.00117171
0.00119462
0.00121621
0.00123662
0.00125655
0.00127641
0.00129701
0.00131868
0.00134209
0.00136723
0.00139436
0.00142314
0.00145343
0.00148463
0.00151645
0.00154821
0.00157973
0.00161054
0.00164073
0.00167015
0.00169922
0.00172803
0.00175717
0.00178684
0.00181761
0.00184955
0.00188304
0.00191793
0.00195436
0.00199194
0.00203065
0.00207
0.00210995
0.00215007
0.00219045
0.0022308
0.00227137
0.0023121
0.00235338
0.00239525
0.00243817
0.00248214
0.00252757
0.00257438
0.00262283
0.00267274
0.00272425
0.00277707
0.00283131
0.00288674
0.00294353
0.00300146
0.00306083
0.00312151
0.0031839
0.00324797
0.00331419
0.00338258
0.00345363
0.00352735
0.00360423
0.00368427
0.00376796
0.00385531
0.00394687
0.00404275
0.00414358
0.00424964
0.00436177
0.00448041
0.00460658
0.0047408
0.00488399
0.00503634
0.00519818
0.00536881
0.00554749
0.00573232
0.00592156
0.00611278
6.61676e-06
-1.09956e-05
-2.12383e-05
-2.53299e-05
-2.39939e-05
-1.86727e-05
-1.02603e-05
-1.78777e-07
1.07164e-05
2.12702e-05
3.09585e-05
3.91003e-05
4.55834e-05
5.01435e-05
5.29282e-05
5.38556e-05
5.31407e-05
5.07259e-05
4.67912e-05
4.12673e-05
3.43578e-05
2.60933e-05
1.68651e-05
6.92251e-06
-3.14829e-06
-1.29492e-05
-2.18031e-05
-2.92761e-05
-3.47471e-05
-3.78588e-05
-3.81479e-05
-3.54288e-05
-2.94781e-05
-2.0428e-05
-8.35337e-06
6.28625e-06
2.31152e-05
4.1354e-05
6.03665e-05
7.91964e-05
9.7107e-05
0.000113164
0.000126795
0.000137341
0.000144647
0.000148514
0.000149302
0.000147286
0.000143325
0.000138105
0.000132856
0.000128421
0.000126001
0.000126247
0.00013003
0.000137508
0.000148974
0.000163982
0.000182247
0.000202713
0.000224628
0.000246579
0.000267675
0.000286599
0.000302791
0.000315414
0.000324555
0.000330097
0.000332879
0.000333416
0.000333087
0.000332752
0.000333914
0.00033729
0.000344018
0.000354278
0.000368509
0.000386121
0.000406833
0.000429429
0.000453152
0.000476507
0.000498723
0.000518537
0.000535639
0.000549386
0.000560214
0.00056822
0.000574547
0.000579832
0.000585546
0.000592407
0.000601684
0.000613697
0.000629134
0.000647625
0.00066916
0.000692718
0.000717764
0.000742944
0.000767628
0.000790617
0.000811661
0.000830092
0.000846309
0.000860286
0.000873027
0.000884966
0.00089736
0.000910701
0.000926067
0.000943601
0.000963896
0.000986526
0.00101152
0.00103795
0.00106546
0.00109293
0.00112003
0.00114581
0.00117028
0.00119296
0.00121436
0.00123448
0.0012542
0.00127379
0.00129424
0.00131576
0.0013391
0.00136417
0.00139135
0.00142012
0.00145051
0.0014817
0.00151356
0.00154523
0.00157669
0.0016073
0.00163732
0.00166645
0.00169527
0.00172374
0.00175264
0.001782
0.00181256
0.00184424
0.00187759
0.00191227
0.00194858
0.00198597
0.00202456
0.00206369
0.00210347
0.00214329
0.00218339
0.00222334
0.00226355
0.00230379
0.00234465
0.00238599
0.00242845
0.00247187
0.00251684
0.00256309
0.00261109
0.00266042
0.00271144
0.00276364
0.00281734
0.00287204
0.00292812
0.00298515
0.00304361
0.00310317
0.00316443
0.00322715
0.00329201
0.00335877
0.00342815
0.00349991
0.00357474
0.00365235
0.00373343
0.00381768
0.00390579
0.00399749
0.0040935
0.00419356
0.00429839
0.00440761
0.00452178
0.00464024
0.00476323
0.00488968
0.00501937
0.00515072
0.00528306
0.00541439
0.00554382
0.00566941
6.63016e-06
-1.13423e-05
-2.19814e-05
-2.60869e-05
-2.46912e-05
-1.90609e-05
-1.04774e-05
-1.45855e-07
1.08128e-05
2.15356e-05
3.12672e-05
3.96206e-05
4.62208e-05
5.10416e-05
5.39472e-05
5.50731e-05
5.43707e-05
5.20089e-05
4.79269e-05
4.22988e-05
3.50768e-05
2.6552e-05
1.68798e-05
6.58696e-06
-3.97268e-06
-1.41301e-05
-2.34357e-05
-3.1197e-05
-3.69991e-05
-4.02366e-05
-4.06236e-05
-3.77718e-05
-3.16617e-05
-2.22097e-05
-9.72781e-06
5.51356e-06
2.28598e-05
4.17209e-05
6.11817e-05
8.04786e-05
9.86515e-05
0.000114936
0.00012857
0.000139069
0.000146087
0.000149615
0.000149852
0.000147301
0.000142675
0.000136904
0.000131053
0.000126216
0.000123462
0.000123622
0.00012745
0.000135278
0.000147166
0.000162834
0.000181736
0.000202911
0.000225351
0.000247759
0.000269077
0.000288116
0.000304171
0.000316561
0.000325245
0.000330276
0.000332388
0.00033232
0.000331352
0.000330573
0.00033137
0.000334654
0.000341425
0.000352009
0.000366661
0.0003849
0.000406217
0.000429447
0.000453617
0.000477325
0.00049964
0.000519432
0.000536254
0.000549628
0.000559881
0.000567321
0.000572996
0.000577785
0.000583044
0.000589683
0.000598857
0.000611026
0.000626725
0.000645684
0.000667692
0.000691786
0.000717232
0.000742752
0.000767558
0.000790562
0.000811382
0.000829505
0.000845223
0.00085872
0.000870897
0.000882403
0.000894396
0.000907539
0.000922794
0.000940435
0.000960894
0.000983849
0.00100914
0.00103592
0.00106365
0.00109131
0.0011184
0.00114411
0.00116832
0.0011907
0.00121166
0.00123137
0.00125063
0.00126988
0.00129
0.00131134
0.00133456
0.00135967
0.0013869
0.00141583
0.00144631
0.00147764
0.00150949
0.00154114
0.00157241
0.0016028
0.00163244
0.00166119
0.00168953
0.00171758
0.00174599
0.00177498
0.00180516
0.00183659
0.00186966
0.00190419
0.0019403
0.00197756
0.00201593
0.00205485
0.00209428
0.00213375
0.00217333
0.00221276
0.00225231
0.00229191
0.00233203
0.00237267
0.00241436
0.0024571
0.00250131
0.00254689
0.00259413
0.00264275
0.00269293
0.00274432
0.00279703
0.00285072
0.00290557
0.00296131
0.00301825
0.00307621
0.00313562
0.0031964
0.00325902
0.00332344
0.00339014
0.00345904
0.00353056
0.00360458
0.00368145
0.00376098
0.00384347
0.00392865
0.00401676
0.00410742
0.00420078
0.0042963
0.00439399
0.00449314
0.00459358
0.00469441
0.00479527
0.00489512
0.00499351
0.00508936
0.00518238
0.00527201
2.879e-06
-1.23337e-05
-2.17742e-05
-2.54775e-05
-2.43146e-05
-1.88435e-05
-1.04909e-05
-1.27147e-07
1.0824e-05
2.17726e-05
3.16435e-05
4.03442e-05
4.71929e-05
5.23994e-05
5.55117e-05
5.68974e-05
5.62199e-05
5.38897e-05
4.95666e-05
4.37076e-05
3.59897e-05
2.69937e-05
1.66528e-05
5.77137e-06
-5.48882e-06
-1.62057e-05
-2.6125e-05
-3.42966e-05
-4.05049e-05
-4.38824e-05
-4.43326e-05
-4.12269e-05
-3.47814e-05
-2.46797e-05
-1.14979e-05
4.65047e-06
2.28355e-05
4.25825e-05
6.27559e-05
8.27189e-05
0.000101283
0.000117836
0.000131417
0.000141714
0.000148201
0.000151077
0.00015041
0.00014695
0.000141322
0.000134708
0.000128057
0.00012266
0.00011949
0.000119622
0.000123622
0.000132001
0.000144712
0.000161405
0.000181321
0.000203508
0.000226752
0.000249837
0.000271493
0.000290645
0.000306424
0.000318322
0.000326201
0.000330331
0.000331389
0.000330374
0.00032851
0.000327093
0.000327428
0.000330638
0.000337609
0.000348756
0.000364157
0.000383347
0.00040559
0.000429721
0.000454562
0.000478764
0.000501219
0.000520896
0.000537242
0.000549947
0.000559295
0.000565822
0.000570569
0.000574605
0.000579257
0.000585605
0.000594724
0.000607182
0.000623367
0.000643043
0.000665797
0.000690665
0.000716713
0.000742702
0.000767679
0.000790636
0.000811091
0.000828676
0.000843648
0.000856378
0.00086776
0.000878615
0.00089007
0.000902938
0.000918105
0.000935932
0.00095672
0.000980173
0.00100596
0.00103324
0.00106133
0.00108923
0.00111632
0.00114187
0.00116568
0.00118756
0.00120787
0.00122695
0.00124556
0.00126429
0.00128398
0.0013051
0.00132821
0.0013534
0.00138078
0.00140996
0.00144064
0.00147215
0.00150403
0.00153562
0.00156663
0.00159666
0.00162576
0.00165393
0.00168159
0.001709
0.00173677
0.00176523
0.00179493
0.00182602
0.0018588
0.00189314
0.00192905
0.00196614
0.00200425
0.00204287
0.00208185
0.00212078
0.00215966
0.00219832
0.00223696
0.00227564
0.00231474
0.00235441
0.00239507
0.00243685
0.00248008
0.00252472
0.00257096
0.00261858
0.00266765
0.00271786
0.00276921
0.00282143
0.00287459
0.00292848
0.0029833
0.00303899
0.00309584
0.00315387
0.00321344
0.00327458
0.00333762
0.00340252
0.00346955
0.00353856
0.00360969
0.0036827
0.00375763
0.00383414
0.00391217
0.00399131
0.00407146
0.00415212
0.00423314
0.00431395
0.00439435
0.00447369
0.0045517
0.00462772
0.00470147
0.00477235
0.00484038
0.0049052
-3.08157e-06
-1.43154e-05
-2.15379e-05
-2.42615e-05
-2.30608e-05
-1.79271e-05
-1.00666e-05
3.36317e-08
1.08572e-05
2.20108e-05
3.21451e-05
4.13157e-05
4.86035e-05
5.42942e-05
5.7729e-05
5.93886e-05
5.87571e-05
5.63927e-05
5.17765e-05
4.54361e-05
3.7038e-05
2.72894e-05
1.60647e-05
4.31953e-06
-7.86563e-06
-1.93907e-05
-3.00827e-05
-3.88224e-05
-4.54559e-05
-4.89541e-05
-4.93513e-05
-4.58533e-05
-3.87539e-05
-2.7726e-05
-1.34933e-05
3.84558e-06
2.31838e-05
4.40966e-05
6.52626e-05
8.60687e-05
0.000105147
0.000121953
0.000135366
0.000145207
0.000150876
0.00015272
0.000150789
0.00014603
0.000139073
0.000131272
0.0001236
0.000117522
0.000113984
0.000114225
0.000118732
0.000128013
0.000141835
0.000159866
0.000181119
0.000204623
0.000228951
0.000252867
0.000274933
0.000294107
0.000309428
0.000320513
0.000327223
0.000330036
0.000329685
0.00032736
0.000324346
0.000322117
0.000322002
0.000325232
0.000332619
0.000344602
0.000361089
0.000381551
0.00040504
0.00043034
0.000456074
0.000480856
0.00050344
0.000522837
0.000538463
0.000550158
0.000558265
0.000563523
0.000567038
0.000570067
0.000573986
0.000580009
0.00058918
0.000602104
0.000619042
0.000639706
0.000663492
0.000689375
0.000716237
0.000742794
0.000767959
0.000790756
0.000810661
0.000827435
0.000841377
0.000853031
0.000863351
0.000873327
0.000884121
0.000896662
0.000911801
0.000929936
0.000951245
0.000975397
0.00100189
0.00102985
0.00105842
0.0010866
0.00111366
0.00113892
0.00116216
0.0011833
0.00120271
0.0012209
0.00123864
0.00125667
0.00127583
0.00129668
0.00131973
0.00134508
0.00137272
0.00140225
0.00143324
0.00146499
0.00149693
0.0015284
0.00155904
0.00158853
0.00161689
0.00164424
0.00167098
0.00169752
0.00172445
0.00175222
0.00178133
0.001812
0.00184445
0.00187858
0.00191428
0.00195117
0.00198896
0.00202718
0.00206556
0.00210375
0.0021417
0.0021793
0.00221675
0.00225418
0.00229196
0.00233033
0.00236969
0.00241023
0.0024522
0.00249562
0.00254059
0.00258691
0.00263454
0.00268319
0.00273278
0.00278305
0.00283397
0.00288542
0.00293749
0.00299019
0.00304374
0.00309822
0.00315388
0.00321081
0.00326922
0.00332908
0.00339049
0.00345331
0.00351749
0.00358277
0.00364901
0.00371588
0.00378318
0.00385054
0.00391778
0.00398451
0.00405055
0.00411551
0.00417919
0.0042412
0.00430131
0.00435914
0.00441453
0.00446725
0.00451727
0.00456433
-9.65563e-06
-1.74801e-05
-2.24021e-05
-2.3759e-05
-2.2035e-05
-1.67983e-05
-9.13977e-06
8.02313e-07
1.15418e-05
2.27926e-05
3.32784e-05
4.29189e-05
5.06775e-05
5.68635e-05
6.06849e-05
6.26114e-05
6.20321e-05
5.94832e-05
5.44086e-05
4.74193e-05
3.81325e-05
2.73702e-05
1.5003e-05
2.09415e-06
-1.12724e-05
-2.38674e-05
-3.55046e-05
-4.49465e-05
-5.20194e-05
-5.56114e-05
-5.57417e-05
-5.16058e-05
-4.35821e-05
-3.13255e-05
-1.57018e-05
3.16065e-06
2.40156e-05
4.63908e-05
6.88011e-05
9.05888e-05
0.000110254
0.000127241
0.000140365
0.000149491
0.000154031
0.00015445
0.000150867
0.000144388
0.000135737
0.00012645
0.000117571
0.000110749
0.00010696
0.000107487
0.000112754
0.000123233
0.000138529
0.000158244
0.000181204
0.000206326
0.000231989
0.000256857
0.000279351
0.000298414
0.000313053
0.000322988
0.000328164
0.000329253
0.000327105
0.000323121
0.000318713
0.000315541
0.000314994
0.000318368
0.000326418
0.000339536
0.000357459
0.000379541
0.000404626
0.000431364
0.000458176
0.000483585
0.000506228
0.000525143
0.000539766
0.000550096
0.000556598
0.000560207
0.000562171
0.000563953
0.00056703
0.000572733
0.000582092
0.000595702
0.000613681
0.000635636
0.000660771
0.000687929
0.000715799
0.000742998
0.000768322
0.000790804
0.00080993
0.000825589
0.000838173
0.00084841
0.000857377
0.000866245
0.00087626
0.000888454
0.000903658
0.000922259
0.000944311
0.000969394
0.000996835
0.00102565
0.00105483
0.00108331
0.00111027
0.00113508
0.00115751
0.00117762
0.00119585
0.00121284
0.00122948
0.00124663
0.00126517
0.00128573
0.00130876
0.00133437
0.00136241
0.00139243
0.00142384
0.00145588
0.00148786
0.00151913
0.00154927
0.001578
0.00160537
0.0016316
0.00165716
0.00168257
0.00170846
0.00173536
0.00176378
0.00179396
0.00182606
0.00185996
0.00189543
0.00193207
0.00196948
0.00200716
0.00204477
0.00208199
0.00211873
0.00215496
0.00219088
0.00222671
0.00226283
0.00229958
0.00233732
0.0023763
0.00241674
0.00245866
0.00250206
0.00254676
0.00259261
0.00263932
0.0026867
0.00273452
0.00278268
0.00283108
0.00287976
0.00292878
0.00297831
0.00302847
0.00307946
0.00313139
0.00318438
0.0032384
0.00329347
0.0033494
0.00340608
0.00346321
0.00352058
0.00357787
0.00363485
0.00369121
0.00374673
0.00380116
0.00385432
0.00390597
0.00395597
0.00400408
0.00405018
0.0040941
0.0041358
0.00417516
0.0042121
0.00424648
-1.61096e-05
-2.15659e-05
-2.46159e-05
-2.45857e-05
-2.19243e-05
-1.60844e-05
-8.05195e-06
2.16076e-06
1.31417e-05
2.47121e-05
3.55258e-05
4.55733e-05
5.37773e-05
6.03695e-05
6.45023e-05
6.6627e-05
6.59973e-05
6.31406e-05
5.74598e-05
4.96141e-05
3.92104e-05
2.71587e-05
1.33474e-05
-1.0523e-06
-1.58952e-05
-2.98313e-05
-4.26074e-05
-5.28573e-05
-6.03718e-05
-6.39634e-05
-6.36694e-05
-5.86559e-05
-4.93807e-05
-3.55454e-05
-1.81336e-05
2.64931e-06
2.54074e-05
4.95588e-05
7.34671e-05
9.63822e-05
0.000116686
0.000133779
0.000146435
0.00015456
0.000157606
0.00015619
0.000150531
0.000141914
0.000131201
0.00012013
0.000109884
0.000102263
9.82933e-05
9.92718e-05
0.000105563
0.000117578
0.000134756
0.000156565
0.000181622
0.000208681
0.00023591
0.000261836
0.00028474
0.000303538
0.000317236
0.000325671
0.000328917
0.000327844
0.000323492
0.000317499
0.000311461
0.000307223
0.000306262
0.000309927
0.000318904
0.000333489
0.000353237
0.000377331
0.000404376
0.000432821
0.000460875
0.000486929
0.000509525
0.000527724
0.000541032
0.000549611
0.000554092
0.000555648
0.000555736
0.00055604
0.000558177
0.000563589
0.000573295
0.000587836
0.000607177
0.000630771
0.000657597
0.000686304
0.000715364
0.000743259
0.000768677
0.00079066
0.000808735
0.000822927
0.000833776
0.000842221
0.000849525
0.000857057
0.000866183
0.000878029
0.00089341
0.000912668
0.000935717
0.000961998
0.000990642
0.0010205
0.0010504
0.00107918
0.00110595
0.0011301
0.00115146
0.00117019
0.00118689
0.00120237
0.00121765
0.00123373
0.00125157
0.00127183
0.00129494
0.00132092
0.00134952
0.00138016
0.0014121
0.00144448
0.0014765
0.00150745
0.00153689
0.0015646
0.0015907
0.0016155
0.00163957
0.00166356
0.00168819
0.00171406
0.00174167
0.0017713
0.00180302
0.00183667
0.0018719
0.00190824
0.00194517
0.00198216
0.0020188
0.00205479
0.00209002
0.00212452
0.00215854
0.0021924
0.0022265
0.00226126
0.00229707
0.00233419
0.0023728
0.00241293
0.00245448
0.00249725
0.00254099
0.00258537
0.00263013
0.00267503
0.00271991
0.00276468
0.00280939
0.00285411
0.00289902
0.00294425
0.00299001
0.0030364
0.00308351
0.00313133
0.00317978
0.00322871
0.0032779
0.0033271
0.00337603
0.0034244
0.00347197
0.00351848
0.00356374
0.00360758
0.00364988
0.00369051
0.0037294
0.00376647
0.00380171
0.00383508
0.00386656
0.00389606
0.0039235
0.00394878
-2.23068e-05
-2.63456e-05
-2.80574e-05
-2.67781e-05
-2.29841e-05
-1.61388e-05
-7.21864e-06
3.78748e-06
1.54795e-05
2.76843e-05
3.90442e-05
4.95816e-05
5.81912e-05
6.51147e-05
6.94528e-05
7.16095e-05
7.07707e-05
6.74328e-05
6.09559e-05
5.20209e-05
4.02362e-05
2.65768e-05
1.09846e-05
-5.25216e-06
-2.1897e-05
-3.74582e-05
-5.15774e-05
-6.27597e-05
-7.07321e-05
-7.42413e-05
-7.33328e-05
-6.71699e-05
-5.62945e-05
-4.04757e-05
-2.08291e-05
2.31856e-06
2.73982e-05
5.36853e-05
7.93723e-05
0.00010358
0.000124563
0.00014167
0.000153645
0.000160445
0.000161605
0.000157894
0.000149685
0.000138476
0.00012532
0.000112167
0.000100374
9.18821e-05
8.77801e-05
8.93951e-05
9.70173e-05
0.000110956
0.000130468
0.000154827
0.000182407
0.000211745
0.000240778
0.000267861
0.000291138
0.000309496
0.000321965
0.000328517
0.000329384
0.000325677
0.000318684
0.000310319
0.0003024
0.000296974
0.000295624
0.000299741
0.000309927
0.000326353
0.000348359
0.000374892
0.000404274
0.000434707
0.000464159
0.000490869
0.00051329
0.000530519
0.000542154
0.000548544
0.000550551
0.00054963
0.000547499
0.000546092
0.000547194
0.000552352
0.000562575
0.000578323
0.000599386
0.000625002
0.000653882
0.000684422
0.000714854
0.000743492
0.000768923
0.000790191
0.000806895
0.000819222
0.000827917
0.000834172
0.000839484
0.000845446
0.000853572
0.000865077
0.000880763
0.000900892
0.000925218
0.000952991
0.000983108
0.00101422
0.00104494
0.001074
0.00110046
0.00112371
0.00114367
0.00116067
0.00117547
0.00118909
0.00120273
0.00121756
0.0012346
0.00125456
0.00127783
0.00130432
0.00133365
0.00136506
0.00139764
0.00143039
0.0014624
0.0014929
0.00152143
0.00154784
0.00157233
0.00159535
0.00161761
0.00163989
0.00166302
0.00168767
0.00171437
0.00174338
0.00177471
0.00180808
0.00184305
0.00187903
0.00191538
0.00195151
0.00198696
0.00202142
0.0020548
0.00208721
0.00211896
0.00215044
0.00218216
0.00221458
0.00224812
0.00228308
0.0023196
0.00235765
0.0023971
0.00243766
0.00247898
0.00252069
0.00256247
0.00260401
0.00264517
0.00268587
0.00272614
0.00276611
0.00280596
0.0028459
0.00288611
0.00292675
0.00296787
0.00300947
0.00305146
0.00309364
0.00313579
0.00317763
0.00321886
0.00325922
0.00329846
0.00333638
0.00337283
0.00340771
0.00344097
0.00347258
0.00350258
0.00353101
0.00355791
0.00358327
0.00360709
0.00362928
0.00364978
0.00366852
-2.84341e-05
-3.16969e-05
-3.24804e-05
-3.01349e-05
-2.51692e-05
-1.70841e-05
-6.90514e-06
5.32723e-06
1.8171e-05
3.14164e-05
4.36666e-05
5.49254e-05
6.40597e-05
7.13154e-05
7.57587e-05
7.77704e-05
7.65187e-05
7.24771e-05
6.49655e-05
5.46702e-05
4.12064e-05
2.56076e-05
7.8837e-06
-1.0546e-05
-2.93291e-05
-4.68108e-05
-6.25012e-05
-7.4768e-05
-8.3254e-05
-8.66288e-05
-8.49256e-05
-7.73347e-05
-6.44965e-05
-4.62633e-05
-2.39082e-05
2.08788e-06
2.99572e-05
5.87931e-05
8.65761e-05
0.000112269
0.000133985
0.000151021
0.000162093
0.000167233
0.000166075
0.000159569
0.000148295
0.000133996
0.000117961
0.000102388
8.88278e-05
7.93791e-05
7.52078e-05
7.76617e-05
8.6944e-05
0.000103232
0.000125568
0.000152976
0.000183546
0.000215542
0.000246637
0.000274988
0.000298601
0.000316332
0.000327257
0.000331494
0.000329488
0.000322638
0.000312535
0.000301405
0.000291332
0.000284586
0.000282868
0.000287601
0.0002993
0.000317971
0.000342695
0.000372123
0.000404248
0.000436969
0.000467988
0.000495373
0.000517489
0.000533469
0.000543035
0.000546768
0.000545817
0.000541969
0.000537253
0.000533882
0.000533837
0.000538773
0.000549689
0.000566939
0.000590103
0.000618144
0.000649456
0.000682131
0.000714125
0.000743561
0.000768914
0.000789234
0.00080422
0.000814259
0.000820356
0.000823999
0.00082697
0.000831112
0.000838113
0.000849278
0.000865393
0.000886615
0.000912507
0.000942073
0.000973939
0.0010065
0.00103815
0.00106748
0.00109348
0.00111558
0.0011338
0.00114867
0.00116118
0.00117258
0.0011843
0.00119767
0.00121382
0.00123349
0.00125698
0.00128413
0.00131434
0.00134667
0.00138
0.00141316
0.00144509
0.00147498
0.00150237
0.00152717
0.0015497
0.00157058
0.00159068
0.00161094
0.00163232
0.00165556
0.00168124
0.00170956
0.00174045
0.00177353
0.00180822
0.00184377
0.00187944
0.00191454
0.00194856
0.00198118
0.00201238
0.00204231
0.00207139
0.00210011
0.00212907
0.0021588
0.00218978
0.0022223
0.00225648
0.00229224
0.00232937
0.00236748
0.00240615
0.00244493
0.00248343
0.00252132
0.00255845
0.00259474
0.00263028
0.00266523
0.00269983
0.00273432
0.00276895
0.00280387
0.00283918
0.00287484
0.00291076
0.00294671
0.00298245
0.00301768
0.00305209
0.00308543
0.00311746
0.00314801
0.003177
0.0032044
0.00323023
0.00325458
0.00327756
0.00329924
0.0033197
0.00333894
0.00335696
0.0033737
0.00338909
0.00340306
-3.47605e-05
-3.75888e-05
-3.76795e-05
-3.43931e-05
-2.82656e-05
-1.88344e-05
-7.18172e-06
6.58156e-06
2.09242e-05
3.55735e-05
4.90605e-05
6.13348e-05
7.12116e-05
7.89114e-05
8.34673e-05
8.52525e-05
8.34117e-05
7.84284e-05
6.96137e-05
5.76687e-05
4.22111e-05
2.43334e-05
4.12581e-06
-1.68598e-05
-3.81263e-05
-5.78417e-05
-7.53615e-05
-8.8898e-05
-9.8005e-05
-0.000101238
-9.86148e-05
-8.93617e-05
-7.42254e-05
-5.31655e-05
-2.76261e-05
1.72677e-06
3.28944e-05
6.47369e-05
9.49886e-05
0.000122418
0.000144983
0.000161903
0.000171885
0.000175044
0.000171136
0.000161319
0.000146421
0.000128478
0.000109067
9.06708e-05
7.50736e-05
6.45516e-05
6.03538e-05
6.38336e-05
7.51097e-05
9.41921e-05
0.000119865
0.000150859
0.000184927
0.000220007
0.000253465
0.000283232
0.000307168
0.000324094
0.000333146
0.000334617
0.000329217
0.000318683
0.00030496
0.000290631
0.000278093
0.00026986
0.000267767
0.000273265
0.000286777
0.000308104
0.00033602
0.000368823
0.000404124
0.000439469
0.00047226
0.000500366
0.000522063
0.000536518
0.000543616
0.000544213
0.000539801
0.000532545
0.000524841
0.000519216
0.000517877
0.000522595
0.000534359
0.000553393
0.000579025
0.000609895
0.000644029
0.000679161
0.000712935
0.000743246
0.000768449
0.000787603
0.000800531
0.000807862
0.000810906
0.000811498
0.000811752
0.000813796
0.000819516
0.000830313
0.000846953
0.000869468
0.000897192
0.000928843
0.000962729
0.000996943
0.00102964
0.00105923
0.00108463
0.00110533
0.00112149
0.00113385
0.00114366
0.00115248
0.00116197
0.00117366
0.00118879
0.00120813
0.00123192
0.00125983
0.00129107
0.00132445
0.00135863
0.00139222
0.00142402
0.00145315
0.00147915
0.00150204
0.00152226
0.00154063
0.00155821
0.00157613
0.00159549
0.00161713
0.00164164
0.00166918
0.0016996
0.00173236
0.00176672
0.00180178
0.00183666
0.00187056
0.00190293
0.00193344
0.00196212
0.00198921
0.00201524
0.00204083
0.00206668
0.00209341
0.00212154
0.00215138
0.00218302
0.00221632
0.00225097
0.00228649
0.00232237
0.00235806
0.00239312
0.0024272
0.00246012
0.00249186
0.00252254
0.00255239
0.00258172
0.00261083
0.00264002
0.00266947
0.00269929
0.00272946
0.00275985
0.00279022
0.00282028
0.00284972
0.00287823
0.00290552
0.0029314
0.00295574
0.00297851
0.00299976
0.00301958
0.00303812
0.00305552
0.00307188
0.00308729
0.00310178
0.00311534
0.00312793
0.00313947
0.00314989
-4.14511e-05
-4.40123e-05
-4.35247e-05
-3.93526e-05
-3.20668e-05
-2.12314e-05
-7.99108e-06
7.47774e-06
2.35577e-05
3.98799e-05
5.48836e-05
6.84404e-05
7.92926e-05
8.76026e-05
9.23589e-05
9.39438e-05
9.14464e-05
8.53689e-05
7.50322e-05
6.11636e-05
4.34108e-05
2.29293e-05
-1.06258e-07
-2.40052e-05
-4.81111e-05
-7.03911e-05
-9.00255e-05
-0.000105078
-0.000114945
-0.000118069
-0.000114483
-0.00010343
-8.57384e-05
-6.15137e-05
-3.23639e-05
8.31989e-07
3.5809e-05
7.11521e-05
0.000104312
0.00013382
0.000157447
0.000174316
0.000183117
0.000184044
0.000177017
0.000163406
0.000144324
0.00012214
9.878e-05
7.70655e-05
5.90646e-05
4.72618e-05
4.30075e-05
4.76517e-05
6.12043e-05
8.34918e-05
0.00011301
0.000148142
0.000186254
0.000224901
0.000261097
0.000292502
0.000316809
0.000332805
0.0003397
0.000337987
0.000328681
0.0003139
0.000296
0.000277979
0.000262595
0.000252643
0.00025011
0.000256471
0.000272048
0.000296406
0.000327975
0.000364642
0.000403584
0.000441937
0.000476759
0.000505689
0.000526904
0.000539613
0.000543885
0.000540888
0.000532506
0.000521337
0.000510193
0.00050197
0.000499129
0.000503573
0.000516277
0.000537318
0.000565744
0.000599826
0.00063717
0.000675103
0.000710907
0.000742219
0.000767255
0.000785077
0.000795657
0.000799891
0.000799442
0.000796537
0.00079367
0.000793295
0.000797526
0.000807874
0.000825079
0.00084903
0.000878806
0.0009128
0.000948962
0.000985041
0.0010189
0.00104878
0.00107348
0.00109257
0.00110636
0.00111584
0.00112258
0.00112843
0.00113536
0.00114511
0.00115907
0.00117802
0.00120212
0.00123087
0.00126325
0.0012978
0.0013329
0.00136694
0.00139857
0.0014268
0.0014512
0.00147188
0.00148946
0.00150495
0.00151966
0.00153492
0.00155197
0.00157179
0.00159497
0.00162163
0.00165151
0.00168391
0.00171791
0.00175243
0.00178642
0.00181898
0.00184949
0.00187765
0.00190351
0.00192745
0.00195009
0.00197222
0.00199464
0.00201809
0.00204315
0.00207012
0.00209907
0.0021298
0.0021619
0.00219478
0.00222782
0.00226039
0.00229199
0.00232223
0.00235094
0.00237813
0.00240398
0.00242881
0.00245299
0.00247692
0.00250093
0.00252527
0.00255005
0.00257525
0.00260071
0.00262618
0.00265133
0.00267581
0.00269929
0.00272149
0.00274223
0.00276143
0.00277911
0.00279534
0.00281029
0.00282412
0.002837
0.00284908
0.00286045
0.00287117
0.00288122
0.00289057
0.00289914
0.00290685
-4.85667e-05
-5.09348e-05
-4.991e-05
-4.48717e-05
-3.64188e-05
-2.41469e-05
-9.25327e-06
8.0221e-06
2.5974e-05
4.41382e-05
6.08474e-05
7.58837e-05
8.79107e-05
9.70336e-05
0.000102165
0.000103561
0.000100408
9.31915e-05
8.12209e-05
6.52469e-05
4.4964e-05
2.16122e-05
-4.54847e-06
-3.16858e-05
-5.89741e-05
-8.41774e-05
-0.000106272
-0.000123068
-0.000133861
-0.000137031
-0.000132554
-0.000119674
-9.92918e-05
-7.16416e-05
-3.85442e-05
-1.09474e-06
3.81578e-05
7.74907e-05
0.000114035
0.000146042
0.000171061
0.000188085
0.000195765
0.000194359
0.000183946
0.000166157
0.000142395
0.0001154
8.74891e-05
6.18799e-05
4.0983e-05
2.75436e-05
2.30483e-05
2.88614e-05
4.48607e-05
7.06637e-05
0.000104465
0.000144262
0.000186984
0.000229747
0.00026915
0.000302533
0.000327381
0.000342432
0.000346995
0.000341772
0.000328103
0.000308527
0.000285866
0.000263594
0.000244891
0.000232882
0.000229737
0.000236963
0.000254752
0.000282434
0.000318059
0.000359062
0.000402126
0.000443923
0.000481109
0.000511057
0.000531823
0.000542669
0.000543847
0.000536865
0.000524034
0.000508438
0.000493363
0.000482125
0.000477485
0.000481501
0.000495134
0.000518307
0.000549767
0.000587385
0.000628304
0.000669392
0.00070752
0.000740023
0.000764954
0.000781373
0.000789399
0.000790219
0.00078588
0.000779044
0.000772632
0.000769472
0.000771941
0.000781679
0.000799408
0.000824857
0.000856833
0.000893374
0.000932033
0.000970178