/*--------------------------------*- C++ -*----------------------------------*\
| =========                 |                                                 |
| \\      /  F ield         | OpenFOAM: The Open Source CFD Toolbox           |
|  \\    /   O peration     | Version:  v1912                                 |
|   \\  /    A nd           | Website:  www.openfoam.com                      |
|    \\/     M anipulation  |                                                 |
\*---------------------------------------------------------------------------*/
FoamFile
{
    version     2.0;
    format      ascii;
    class       surfaceScalarField;
    location    "0.6";
    object      phi;
}
// * * * * * * * * * * * * * * * * * * * * * * * * * * * * * * * * * * * * * //

dimensions      [0 3 -1 0 0 0 0];
oriented        oriented;


internalField   nonuniform List<scalar> 
23660
(
3.87647e-06
8.22439e-10
3.87653e-06
-9.83391e-10
3.87647e-06
8.56303e-10
3.87639e-06
-8.78629e-10
3.87633e-06
8.82481e-10
3.87627e-06
-8.43426e-10
3.87624e-06
8.63072e-10
3.87622e-06
-8.32849e-10
3.87623e-06
8.40369e-10
3.87623e-06
-8.20646e-10
3.87623e-06
8.27612e-10
3.87623e-06
-8.06556e-10
3.87623e-06
8.17737e-10
3.87624e-06
-7.95883e-10
3.87624e-06
7.9958e-10
3.87626e-06
-7.89979e-10
3.87627e-06
7.74791e-10
3.8763e-06
-7.87794e-10
3.87632e-06
7.46638e-10
3.87635e-06
-7.86115e-10
3.87637e-06
7.18356e-10
3.87641e-06
-7.81969e-10
3.87643e-06
6.96795e-10
3.87646e-06
-7.82754e-10
3.87645e-06
6.79595e-10
3.87648e-06
-7.70649e-10
3.87646e-06
6.72186e-10
3.87647e-06
-7.47902e-10
3.87644e-06
6.73433e-10
3.87644e-06
-7.16824e-10
3.8764e-06
6.80519e-10
3.87638e-06
-6.81988e-10
3.87632e-06
6.88917e-10
3.8763e-06
-6.47228e-10
3.87624e-06
6.94718e-10
3.87621e-06
-6.19753e-10
3.87615e-06
6.98985e-10
3.87613e-06
-5.99362e-10
3.87607e-06
6.9636e-10
3.87607e-06
-5.83912e-10
3.87601e-06
6.84754e-10
3.87602e-06
-5.76373e-10
3.87597e-06
6.66131e-10
3.87598e-06
-5.73421e-10
3.87594e-06
6.44747e-10
3.87596e-06
-5.71776e-10
3.87592e-06
6.22581e-10
3.87594e-06
-5.72492e-10
3.87589e-06
5.99457e-10
3.8759e-06
-5.68078e-10
3.87585e-06
5.8991e-10
3.87585e-06
-5.52102e-10
3.87579e-06
5.88831e-10
3.87578e-06
-5.28304e-10
3.87571e-06
5.92767e-10
3.8757e-06
-5.01451e-10
3.87562e-06
5.99047e-10
3.8756e-06
-4.76816e-10
3.87552e-06
6.03168e-10
3.87551e-06
-4.58167e-10
3.87543e-06
6.01496e-10
3.87543e-06
-4.45253e-10
3.87535e-06
5.92811e-10
3.87535e-06
-4.38006e-10
3.87528e-06
5.78845e-10
3.87529e-06
-4.34791e-10
3.87521e-06
5.61725e-10
3.87522e-06
-4.33359e-10
3.87515e-06
5.44112e-10
3.87515e-06
-4.2967e-10
3.87507e-06
5.34242e-10
3.87507e-06
-4.18543e-10
3.87499e-06
5.32035e-10
3.87498e-06
-4.00718e-10
3.87489e-06
5.34917e-10
3.87488e-06
-3.80747e-10
3.87478e-06
5.40447e-10
3.87477e-06
-3.6322e-10
3.87467e-06
5.42349e-10
3.87466e-06
-3.49787e-10
3.87456e-06
5.39556e-10
3.87455e-06
-3.40973e-10
3.87446e-06
5.32265e-10
3.87445e-06
-3.35478e-10
3.87436e-06
5.2211e-10
3.87435e-06
-3.31686e-10
3.87425e-06
5.11426e-10
3.87424e-06
-3.26685e-10
3.87415e-06
5.03569e-10
3.87414e-06
-3.18117e-10
3.87404e-06
5.00949e-10
3.87402e-06
-3.05766e-10
3.87392e-06
5.02616e-10
3.87389e-06
-2.91549e-10
3.87379e-06
5.06188e-10
3.87376e-06
-2.777e-10
3.87365e-06
5.08618e-10
3.87363e-06
-2.66169e-10
3.87352e-06
5.0823e-10
3.87349e-06
-2.57506e-10
3.87338e-06
5.05239e-10
3.87336e-06
-2.50895e-10
3.87324e-06
5.00617e-10
3.87322e-06
-2.45114e-10
3.87311e-06
4.95931e-10
3.87308e-06
-2.38534e-10
3.87297e-06
4.93057e-10
3.87294e-06
-2.29988e-10
3.87282e-06
4.93028e-10
3.87279e-06
-2.19445e-10
3.87266e-06
4.95514e-10
3.87263e-06
-2.07929e-10
3.8725e-06
4.99078e-10
3.87247e-06
-1.96734e-10
3.87234e-06
5.02209e-10
3.8723e-06
-1.86794e-10
3.87217e-06
5.04054e-10
3.87213e-06
-1.78335e-10
3.87199e-06
5.04699e-10
3.87195e-06
-1.70769e-10
3.87181e-06
5.04853e-10
3.87177e-06
-1.6329e-10
3.87163e-06
5.05394e-10
3.87159e-06
-1.55172e-10
3.87145e-06
5.07193e-10
3.8714e-06
-1.45986e-10
3.87126e-06
5.10708e-10
3.87121e-06
-1.35781e-10
3.87106e-06
5.15621e-10
3.871e-06
-1.25288e-10
3.87085e-06
5.21253e-10
3.87079e-06
-1.14887e-10
3.87063e-06
5.2692e-10
3.87058e-06
-1.0506e-10
3.87041e-06
5.32232e-10
3.87036e-06
-9.57604e-11
3.87019e-06
5.37318e-10
3.87013e-06
-8.66161e-11
3.86995e-06
5.42638e-10
3.86989e-06
-7.71585e-11
3.86971e-06
5.48758e-10
3.86965e-06
-6.70408e-11
3.86947e-06
5.56137e-10
3.8694e-06
-5.61608e-11
3.86921e-06
5.64954e-10
3.86914e-06
-4.46676e-11
3.86894e-06
5.75097e-10
3.86887e-06
-3.28525e-11
3.86866e-06
5.8632e-10
3.86859e-06
-2.10167e-11
3.86838e-06
5.98363e-10
3.8683e-06
-9.51607e-12
3.86808e-06
6.10653e-10
3.868e-06
1.68301e-12
3.86777e-06
6.22463e-10
3.86769e-06
1.95683e-11
3.86745e-06
6.34578e-10
3.86736e-06
3.61222e-11
3.86712e-06
6.48194e-10
3.86702e-06
5.32571e-11
3.86677e-06
6.63439e-10
3.86667e-06
7.13303e-11
3.86641e-06
6.80295e-10
3.8663e-06
9.03718e-11
3.86603e-06
6.98432e-10
3.86592e-06
1.10177e-10
3.86564e-06
7.17431e-10
3.86552e-06
1.30666e-10
3.86523e-06
7.37197e-10
3.8651e-06
1.51607e-10
3.86479e-06
7.58087e-10
3.86465e-06
1.73772e-10
3.86433e-06
7.80745e-10
3.86417e-06
1.97538e-10
3.86384e-06
8.0572e-10
3.86367e-06
2.23451e-10
3.86332e-06
8.3358e-10
3.86313e-06
2.5207e-10
3.86276e-06
8.64886e-10
3.86255e-06
2.83983e-10
3.86217e-06
9.00211e-10
3.86194e-06
3.19843e-10
3.86152e-06
9.40211e-10
3.86127e-06
3.60482e-10
3.86083e-06
9.85812e-10
3.86054e-06
4.07176e-10
3.86007e-06
1.0387e-09
3.85975e-06
4.62236e-10
3.85923e-06
1.10214e-09
3.85887e-06
5.30167e-10
3.85829e-06
1.18363e-09
3.85787e-06
6.22739e-10
3.8572e-06
1.30607e-09
3.85666e-06
7.72122e-10
3.85581e-06
1.52072e-09
3.85506e-06
1.03923e-09
3.85389e-06
1.9031e-09
3.85276e-06
1.51595e-09
3.85106e-06
2.55765e-09
1.9711e-09
3.84978e-06
4.18598e-06
7.04971e-10
4.18586e-06
-8.61468e-10
4.18595e-06
7.64447e-10
4.18582e-06
-7.47024e-10
4.18589e-06
8.10294e-10
4.18575e-06
-7.07762e-10
4.18582e-06
7.97071e-10
4.1857e-06
-7.10027e-10
4.18577e-06
7.65347e-10
4.18565e-06
-7.05059e-10
4.18573e-06
7.49733e-10
4.18562e-06
-6.97259e-10
4.18571e-06
7.33834e-10
4.18561e-06
-6.98314e-10
4.1857e-06
7.05158e-10
4.18562e-06
-7.08809e-10
4.18573e-06
6.67682e-10
4.18567e-06
-7.25175e-10
4.18578e-06
6.29978e-10
4.18574e-06
-7.41915e-10
4.18586e-06
5.9755e-10
4.18583e-06
-7.49095e-10
4.18595e-06
5.76178e-10
4.18591e-06
-7.43584e-10
4.18602e-06
5.70051e-10
4.18597e-06
-7.20198e-10
4.18606e-06
5.80603e-10
4.18599e-06
-6.79993e-10
4.18606e-06
6.05017e-10
4.18597e-06
-6.26368e-10
4.18601e-06
6.38932e-10
4.1859e-06
-5.7234e-10
4.18592e-06
6.73829e-10
4.18579e-06
-5.24862e-10
4.18579e-06
6.9729e-10
4.18566e-06
-4.91493e-10
4.18566e-06
7.04122e-10
4.18554e-06
-4.7645e-10
4.18554e-06
6.91106e-10
4.18544e-06
-4.78054e-10
4.18546e-06
6.63783e-10
4.18537e-06
-4.89731e-10
4.18541e-06
6.25839e-10
4.18534e-06
-5.07016e-10
4.1854e-06
5.91221e-10
4.18535e-06
-5.22353e-10
4.1854e-06
5.65413e-10
4.18536e-06
-5.25416e-10
4.18541e-06
5.51607e-10
4.18535e-06
-5.12744e-10
4.18538e-06
5.56118e-10
4.18531e-06
-4.81637e-10
4.18533e-06
5.74713e-10
4.18524e-06
-4.38907e-10
4.18523e-06
5.99394e-10
4.18513e-06
-3.98931e-10
4.18511e-06
6.21364e-10
4.185e-06
-3.69048e-10
4.18497e-06
6.28855e-10
4.18487e-06
-3.5492e-10
4.18485e-06
6.18171e-10
4.18476e-06
-3.54619e-10
4.18476e-06
5.95834e-10
4.18468e-06
-3.60909e-10
4.18469e-06
5.69361e-10
4.18463e-06
-3.70056e-10
4.18464e-06
5.47674e-10
4.18458e-06
-3.73891e-10
4.18459e-06
5.33925e-10
4.18453e-06
-3.65845e-10
4.18453e-06
5.3375e-10
4.18445e-06
-3.44067e-10
4.18444e-06
5.45444e-10
4.18435e-06
-3.126e-10
4.18433e-06
5.62527e-10
4.18423e-06
-2.83049e-10
4.18419e-06
5.77601e-10
4.18409e-06
-2.61956e-10
4.18405e-06
5.80355e-10
4.18395e-06
-2.51721e-10
4.18392e-06
5.70196e-10
4.18383e-06
-2.50179e-10
4.18381e-06
5.54295e-10
4.18373e-06
-2.52707e-10
4.18371e-06
5.38822e-10
4.18363e-06
-2.54639e-10
4.18362e-06
5.28038e-10
4.18354e-06
-2.49186e-10
4.18352e-06
5.25923e-10
4.18343e-06
-2.34213e-10
4.1834e-06
5.32359e-10
4.18331e-06
-2.12749e-10
4.18327e-06
5.44233e-10
4.18317e-06
-1.90764e-10
4.18312e-06
5.55784e-10
4.18301e-06
-1.72148e-10
4.18296e-06
5.60261e-10
4.18285e-06
-1.60227e-10
4.1828e-06
5.56488e-10
4.1827e-06
-1.54456e-10
4.18266e-06
5.49216e-10
4.18256e-06
-1.5183e-10
4.18252e-06
5.41855e-10
4.18242e-06
-1.48431e-10
4.18238e-06
5.37728e-10
4.18228e-06
-1.40403e-10
4.18223e-06
5.39266e-10
4.18213e-06
-1.27068e-10
4.18208e-06
5.45998e-10
4.18197e-06
-1.10005e-10
4.18191e-06
5.55694e-10
4.18179e-06
-9.24341e-11
4.18173e-06
5.64344e-10
4.18161e-06
-7.70982e-11
4.18154e-06
5.69098e-10
4.18142e-06
-6.55098e-11
4.18135e-06
5.70282e-10
4.18123e-06
-5.75174e-11
4.18117e-06
5.69866e-10
4.18105e-06
-5.01837e-11
4.18098e-06
5.69884e-10
4.18086e-06
-4.15347e-11
4.18079e-06
5.72527e-10
4.18067e-06
-3.02766e-11
4.1806e-06
5.78603e-10
4.18047e-06
-1.62268e-11
4.18039e-06
5.87397e-10
4.18026e-06
1.14017e-14
4.18017e-06
5.97556e-10
4.18003e-06
1.55421e-11
4.17995e-06
6.07158e-10
4.1798e-06
3.03062e-11
4.17971e-06
6.1494e-10
4.17956e-06
4.33919e-11
4.17948e-06
6.21391e-10
4.17932e-06
5.53874e-11
4.17923e-06
6.27789e-10
4.17908e-06
6.74703e-11
4.17899e-06
6.35491e-10
4.17883e-06
8.07859e-11
4.17873e-06
6.45387e-10
4.17857e-06
9.59859e-11
4.17847e-06
6.57622e-10
4.1783e-06
1.13041e-10
4.17819e-06
6.71645e-10
4.17802e-06
1.31348e-10
4.1779e-06
6.86556e-10
4.17772e-06
1.50092e-10
4.17761e-06
7.01566e-10
4.17742e-06
1.68665e-10
4.1773e-06
7.16291e-10
4.1771e-06
1.8702e-10
4.17698e-06
7.31352e-10
4.17678e-06
2.06145e-10
4.17665e-06
7.48723e-10
4.17644e-06
2.27142e-10
4.17631e-06
7.68454e-10
4.1761e-06
2.49472e-10
4.17595e-06
7.89979e-10
4.17573e-06
2.73674e-10
4.17558e-06
8.13763e-10
4.17536e-06
2.99766e-10
4.1752e-06
8.39295e-10
4.17496e-06
3.27313e-10
4.17479e-06
8.66253e-10
4.17455e-06
3.56217e-10
4.17437e-06
8.94893e-10
4.17411e-06
3.86689e-10
4.17392e-06
9.25592e-10
4.17366e-06
4.18927e-10
4.17346e-06
9.58685e-10
4.17318e-06
4.53585e-10
4.17296e-06
9.94931e-10
4.17267e-06
4.91461e-10
4.17244e-06
1.03521e-09
4.17213e-06
5.33441e-10
4.17188e-06
1.08038e-09
4.17155e-06
5.80394e-10
4.17129e-06
1.13131e-09
4.17094e-06
6.33263e-10
4.17065e-06
1.18907e-09
4.17027e-06
6.93304e-10
4.16996e-06
1.25521e-09
4.16956e-06
7.62409e-10
4.16921e-06
1.33195e-09
4.16878e-06
8.43135e-10
4.16839e-06
1.42305e-09
4.16791e-06
9.43611e-10
4.16747e-06
1.54318e-09
4.16692e-06
1.08018e-09
4.16639e-06
1.71137e-09
4.16574e-06
1.27011e-09
4.16511e-06
1.94496e-09
4.16434e-06
1.534e-09
4.1636e-06
2.26333e-09
4.16275e-06
1.89387e-09
4.16197e-06
2.68233e-09
4.16112e-06
2.36035e-09
4.1605e-06
3.18201e-09
2.83934e-09
4.15963e-06
4.52022e-06
5.48877e-10
4.51992e-06
-5.62162e-10
4.52013e-06
5.51196e-10
4.51989e-06
-5.02943e-10
4.52011e-06
5.89022e-10
4.51987e-06
-4.6657e-10
4.52007e-06
5.91063e-10
4.51983e-06
-4.67047e-10
4.52003e-06
5.68859e-10
4.51979e-06
-4.67477e-10
4.51999e-06
5.5052e-10
4.51976e-06
-4.7041e-10
4.51997e-06
5.29379e-10
4.51975e-06
-4.85549e-10
4.51997e-06
4.89632e-10
4.51977e-06
-5.13989e-10
4.52e-06
4.38782e-10
4.51983e-06
-5.48051e-10
4.52007e-06
3.88821e-10
4.5199e-06
-5.78178e-10
4.52015e-06
3.49639e-10
4.52e-06
-5.92859e-10
4.52024e-06
3.31469e-10
4.52008e-06
-5.82845e-10
4.52031e-06
3.39883e-10
4.52014e-06
-5.47821e-10
4.52034e-06
3.7378e-10
4.52016e-06
-4.90926e-10
4.52034e-06
4.25331e-10
4.52012e-06
-4.15677e-10
4.52028e-06
4.85859e-10
4.52004e-06
-3.3989e-10
4.52018e-06
5.42777e-10
4.51993e-06
-2.78051e-10
4.52005e-06
5.80979e-10
4.5198e-06
-2.41445e-10
4.51991e-06
5.90038e-10
4.51967e-06
-2.36052e-10
4.51979e-06
5.68782e-10
4.51957e-06
-2.56091e-10
4.51971e-06
5.26249e-10
4.51951e-06
-2.89639e-10
4.51966e-06
4.72345e-10
4.51948e-06
-3.26842e-10
4.51965e-06
4.2477e-10
4.51948e-06
-3.5438e-10
4.51965e-06
3.95263e-10
4.51948e-06
-3.59223e-10
4.51964e-06
3.91984e-10
4.51947e-06
-3.37907e-10
4.51961e-06
4.15079e-10
4.51942e-06
-2.94418e-10
4.51954e-06
4.55504e-10
4.51934e-06
-2.35834e-10
4.51944e-06
5.00265e-10
4.51922e-06
-1.8363e-10
4.51931e-06
5.34441e-10
4.51909e-06
-1.48493e-10
4.51917e-06
5.43577e-10
4.51896e-06
-1.40853e-10
4.51905e-06
5.26197e-10
4.51885e-06
-1.533e-10
4.51895e-06
4.93193e-10
4.51877e-06
-1.7449e-10
4.51888e-06
4.56558e-10
4.5187e-06
-1.9421e-10
4.51882e-06
4.29158e-10
4.51865e-06
-2.01293e-10
4.51876e-06
4.20524e-10
4.51859e-06
-1.89137e-10
4.51869e-06
4.33452e-10
4.5185e-06
-1.5968e-10
4.51859e-06
4.60663e-10
4.51839e-06
-1.1773e-10
4.51846e-06
4.91531e-10
4.51826e-06
-7.94048e-11
4.51832e-06
5.14093e-10
4.51811e-06
-5.47352e-11
4.51818e-06
5.1749e-10
4.51797e-06
-4.85417e-11
4.51804e-06
5.02189e-10
4.51785e-06
-5.45585e-11
4.51792e-06
4.79797e-10
4.51773e-06
-6.48312e-11
4.51781e-06
4.59218e-10
4.51763e-06
-7.07964e-11
4.51771e-06
4.49081e-10
4.51752e-06
-6.52705e-11
4.51759e-06
4.55423e-10
4.51741e-06
-4.64573e-11
4.51747e-06
4.72688e-10
4.51727e-06
-1.81772e-11
4.51732e-06
4.9468e-10
4.51712e-06
1.1089e-11
4.51716e-06
5.13044e-10
4.51696e-06
3.44562e-11
4.517e-06
5.1976e-10
4.51679e-06
4.57847e-11
4.51683e-06
5.14098e-10
4.51663e-06
4.87744e-11
4.51668e-06
5.03704e-10
4.51648e-06
4.80601e-11
4.51652e-06
4.94215e-10
4.51633e-06
4.9403e-11
4.51637e-06
4.92287e-10
4.51617e-06
5.75307e-11
4.51621e-06
5.00416e-10
4.51601e-06
7.39608e-11
4.51604e-06
5.14375e-10
4.51583e-06
9.71269e-11
4.51586e-06
5.30812e-10
4.51565e-06
1.20362e-10
4.51567e-06
5.44951e-10
4.51545e-06
1.38726e-10
4.51547e-06
5.52511e-10
4.51525e-06
1.51274e-10
4.51527e-06
5.53857e-10
4.51505e-06
1.59462e-10
4.51507e-06
5.5335e-10
4.51485e-06
1.6625e-10
4.51486e-06
5.5485e-10
4.51465e-06
1.75131e-10
4.51466e-06
5.61341e-10
4.51444e-06
1.88523e-10
4.51445e-06
5.72689e-10
4.51422e-06
2.06749e-10
4.51422e-06
5.87439e-10
4.514e-06
2.27976e-10
4.51399e-06
6.0318e-10
4.51376e-06
2.48652e-10
4.51375e-06
6.17295e-10
4.51351e-06
2.67063e-10
4.5135e-06
6.28431e-10
4.51326e-06
2.82716e-10
4.51324e-06
6.37491e-10
4.513e-06
2.96771e-10
4.51298e-06
6.46738e-10
4.51274e-06
3.11198e-10
4.51271e-06
6.58129e-10
4.51247e-06
3.27891e-10
4.51244e-06
6.72693e-10
4.51219e-06
3.47831e-10
4.51216e-06
6.90421e-10
4.5119e-06
3.70689e-10
4.51186e-06
7.10387e-10
4.5116e-06
3.95144e-10
4.51155e-06
7.31208e-10
4.51128e-06
4.19761e-10
4.51123e-06
7.51726e-10
4.51096e-06
4.43793e-10
4.5109e-06
7.71727e-10
4.51062e-06
4.67628e-10
4.51056e-06
7.92494e-10
4.51027e-06
4.92497e-10
4.5102e-06
8.15617e-10
4.50991e-06
5.19229e-10
4.50984e-06
8.41422e-10
4.50954e-06
5.4889e-10
4.50946e-06
8.6997e-10
4.50915e-06
5.81588e-10
4.50907e-06
9.01325e-10
4.50875e-06
6.16982e-10
4.50865e-06
9.35187e-10
4.50832e-06
6.54283e-10
4.50822e-06
9.71227e-10
4.50788e-06
6.93545e-10
4.50777e-06
1.00952e-09
4.50742e-06
7.35303e-10
4.50729e-06
1.05056e-09
4.50693e-06
7.80049e-10
4.5068e-06
1.09512e-09
4.50642e-06
8.2858e-10
4.50627e-06
1.14428e-09
4.50588e-06
8.82003e-10
4.50572e-06
1.19917e-09
4.50531e-06
9.415e-10
4.50513e-06
1.26097e-09
4.5047e-06
1.00826e-09
4.5045e-06
1.3309e-09
4.50405e-06
1.08368e-09
4.50383e-06
1.4106e-09
4.50335e-06
1.16978e-09
4.50311e-06
1.50273e-09
4.5026e-06
1.27019e-09
4.50232e-06
1.61247e-09
4.50177e-06
1.39184e-09
4.50144e-06
1.74894e-09
4.50084e-06
1.54501e-09
4.50046e-06
1.92294e-09
4.4998e-06
1.73978e-09
4.49937e-06
2.14347e-09
4.49866e-06
1.98509e-09
4.49818e-06
2.4187e-09
4.49743e-06
2.28962e-09
4.49693e-06
2.75585e-09
4.49617e-06
2.65879e-09
4.4957e-06
3.15379e-09
4.49498e-06
3.07618e-09
4.49467e-06
3.4966e-09
3.55752e-09
4.49395e-06
4.88111e-06
3.83839e-10
4.8808e-06
-2.48966e-10
4.88097e-06
3.81661e-10
4.88072e-06
-2.53848e-10
4.88094e-06
3.71967e-10
4.88072e-06
-2.47335e-10
4.88093e-06
3.82129e-10
4.8807e-06
-2.36309e-10
4.88089e-06
3.74856e-10
4.88066e-06
-2.39081e-10
4.88085e-06
3.59187e-10
4.88064e-06
-2.53848e-10
4.88084e-06
3.30293e-10
4.88064e-06
-2.85318e-10
4.88085e-06
2.78827e-10
4.88067e-06
-3.34394e-10
4.88089e-06
2.17752e-10
4.88073e-06
-3.89172e-10
4.88096e-06
1.59725e-10
4.88081e-06
-4.34939e-10
4.88105e-06
1.17558e-10
4.88091e-06
-4.55253e-10
4.88113e-06
1.05724e-10
4.88099e-06
-4.39841e-10
4.8812e-06
1.29888e-10
4.88104e-06
-3.90122e-10
4.88123e-06
1.86489e-10
4.88105e-06
-3.12798e-10
4.88121e-06
2.67512e-10
4.88101e-06
-2.18576e-10
4.88114e-06
3.58728e-10
4.88093e-06
-1.26346e-10
4.88103e-06
4.40409e-10
4.88081e-06
-5.35597e-11
4.88089e-06
4.91659e-10
4.88067e-06
-1.61374e-11
4.88076e-06
4.98445e-10
4.88054e-06
-1.79063e-11
4.88065e-06
4.6626e-10
4.88044e-06
-5.5487e-11
4.88056e-06
4.10187e-10
4.88038e-06
-1.13231e-10
4.88051e-06
3.44109e-10
4.88036e-06
-1.72322e-10
4.8805e-06
2.8773e-10
4.88035e-06
-2.12238e-10
4.88049e-06
2.58185e-10
4.88035e-06
-2.17727e-10
4.88047e-06
2.66025e-10
4.88032e-06
-1.86116e-10
4.88043e-06
3.06551e-10
4.88027e-06
-1.29063e-10
4.88035e-06
3.69937e-10
4.88017e-06
-5.81421e-11
4.88024e-06
4.35833e-10
4.88005e-06
3.13304e-12
4.88011e-06
4.80082e-10
4.87991e-06
4.28311e-11
4.87997e-06
4.87305e-10
4.87978e-06
4.52908e-11
4.87985e-06
4.63731e-10
4.87967e-06
2.17226e-11
4.87974e-06
4.21795e-10
4.87958e-06
-1.426e-11
4.87966e-06
3.77928e-10
4.87951e-06
-4.70937e-11
4.87959e-06
3.4903e-10
4.87945e-06
-5.8645e-11
4.87952e-06
3.48617e-10
4.87938e-06
-4.19878e-11
4.87944e-06
3.7335e-10
4.87928e-06
-3.75914e-12
4.87933e-06
4.14871e-10
4.87916e-06
4.81523e-11
4.87919e-06
4.58274e-10
4.87902e-06
9.45033e-11
4.87905e-06
4.8703e-10
4.87887e-06
1.21191e-10
4.8789e-06
4.9071e-10
4.87873e-06
1.22695e-10
4.87876e-06
4.73914e-10
4.87859e-06
1.08349e-10
4.87862e-06
4.47442e-10
4.87847e-06
8.93696e-11
4.87851e-06
4.24217e-10
4.87836e-06
7.84063e-11
4.87839e-06
4.16988e-10
4.87824e-06
8.52677e-11
4.87826e-06
4.29674e-10
4.87811e-06
1.10103e-10
4.87812e-06
4.5557e-10
4.87796e-06
1.45779e-10
4.87797e-06
4.86897e-10
4.8778e-06
1.81876e-10
4.8778e-06
5.11998e-10
4.87763e-06
2.07814e-10
4.87762e-06
5.21866e-10
4.87745e-06
2.17239e-10
4.87745e-06
5.17786e-10
4.87728e-06
2.1575e-10
4.87728e-06
5.06905e-10
4.87712e-06
2.10419e-10
4.87711e-06
4.97279e-10
4.87695e-06
2.09886e-10
4.87695e-06
4.974e-10
4.87678e-06
2.20743e-10
4.87677e-06
5.0943e-10
4.87661e-06
2.42128e-10
4.87659e-06
5.29957e-10
4.87642e-06
2.70376e-10
4.87639e-06
5.53667e-10
4.87622e-06
2.98525e-10
4.87619e-06
5.73123e-10
4.87601e-06
3.19875e-10
4.87598e-06
5.84065e-10
4.87579e-06
3.3238e-10
4.87576e-06
5.88073e-10
4.87558e-06
3.3952e-10
4.87554e-06
5.89207e-10
4.87536e-06
3.45764e-10
4.87533e-06
5.92526e-10
4.87515e-06
3.5608e-10
4.87511e-06
6.01974e-10
4.87492e-06
3.72952e-10
4.87488e-06
6.17898e-10
4.87469e-06
3.95687e-10
4.87464e-06
6.38558e-10
4.87444e-06
4.21644e-10
4.87438e-06
6.6035e-10
4.87419e-06
4.46851e-10
4.87412e-06
6.79675e-10
4.87392e-06
4.68464e-10
4.87386e-06
6.95133e-10
4.87365e-06
4.86243e-10
4.87358e-06
7.07933e-10
4.87338e-06
5.02265e-10
4.8733e-06
7.20712e-10
4.87309e-06
5.19368e-10
4.87302e-06
7.3607e-10
4.8728e-06
5.39822e-10
4.87272e-06
7.55567e-10
4.87251e-06
5.64567e-10
4.87242e-06
7.79261e-10
4.87219e-06
5.9293e-10
4.8721e-06
8.05793e-10
4.87187e-06
6.23124e-10
4.87177e-06
8.33214e-10
4.87154e-06
6.53299e-10
4.87143e-06
8.60117e-10
4.87119e-06
6.82605e-10
4.87107e-06
8.86472e-10
4.87083e-06
7.11702e-10
4.87071e-06
9.13572e-10
4.87046e-06
7.42087e-10
4.87033e-06
9.42867e-10
4.87008e-06
7.75072e-10
4.86994e-06
9.75491e-10
4.86968e-06
8.11721e-10
4.86954e-06
1.01204e-09
4.86927e-06
8.52179e-10
4.86911e-06
1.05231e-09
4.86884e-06
8.96054e-10
4.86868e-06
1.09578e-09
4.86839e-06
9.42765e-10
4.86822e-06
1.14201e-09
4.86792e-06
9.92097e-10
4.86774e-06
1.19112e-09
4.86743e-06
1.04443e-09
4.86723e-06
1.24375e-09
4.86691e-06
1.10065e-09
4.86671e-06
1.30098e-09
4.86637e-06
1.16199e-09
4.86615e-06
1.36416e-09
4.86581e-06
1.22988e-09
4.86557e-06
1.43472e-09
4.86521e-06
1.30577e-09
4.86495e-06
1.51413e-09
4.86457e-06
1.39118e-09
4.8643e-06
1.60408e-09
4.86389e-06
1.48808e-09
4.8636e-06
1.70703e-09
4.86317e-06
1.59959e-09
4.86284e-06
1.82696e-09
4.86238e-06
1.73044e-09
4.86202e-06
1.96928e-09
4.86153e-06
1.88637e-09
4.86114e-06
2.13972e-09
4.86061e-06
2.07288e-09
4.86019e-06
2.34326e-09
4.85964e-06
2.29483e-09
4.8592e-06
2.58444e-09
4.85862e-06
2.5567e-09
4.85818e-06
2.86708e-09
4.8576e-06
2.86138e-09
4.85717e-06
3.19198e-09
4.85662e-06
3.20604e-09
4.85623e-06
3.5473e-09
4.85577e-06
3.53631e-09
4.85537e-06
3.88925e-09
4.05377e-09
4.85488e-06
5.27078e-06
2.4738e-10
5.27057e-06
-3.47937e-11
5.27066e-06
2.87053e-10
5.27045e-06
-4.43523e-11
5.27057e-06
2.54256e-10
5.2704e-06
-7.75835e-11
5.27054e-06
2.42815e-10
5.27039e-06
-8.00215e-11
5.27051e-06
2.48398e-10
5.27036e-06
-8.59367e-11
5.27048e-06
2.34256e-10
5.27034e-06
-1.07642e-10
5.27047e-06
1.95663e-10
5.27034e-06
-1.57528e-10
5.27049e-06
1.31633e-10
5.27038e-06
-2.27489e-10
5.27054e-06
6.04549e-11
5.27045e-06
-3.00966e-10
5.27062e-06
-7.10684e-12
5.27054e-06
-3.58131e-10
5.27071e-06
-5.22967e-11
5.27064e-06
-3.79269e-10
5.2708e-06
-5.60029e-11
5.27072e-06
-3.57075e-10
5.27086e-06
-1.48752e-11
5.27076e-06
-2.92712e-10
5.27088e-06
6.68389e-11
5.27076e-06
-1.94032e-10
5.27085e-06
1.78293e-10
5.27071e-06
-7.89156e-11
5.27078e-06
2.97216e-10
5.27062e-06
3.37888e-11
5.27066e-06
3.97198e-10
5.27049e-06
1.18647e-10
5.27052e-06
4.55738e-10
5.27035e-06
1.54228e-10
5.27039e-06
4.63654e-10
5.27023e-06
1.39969e-10
5.27027e-06
4.23914e-10
5.27013e-06
8.39498e-11
5.27019e-06
3.51773e-10
5.27007e-06
7.84609e-12
5.27014e-06
2.71014e-10
5.27004e-06
-7.01835e-11
5.27012e-06
2.06446e-10
5.27003e-06
-1.19494e-10
5.27011e-06
1.78201e-10
5.27001e-06
-1.22992e-10
5.27008e-06
1.97241e-10
5.26998e-06
-8.30212e-11
5.27003e-06
2.57285e-10
5.26991e-06
-1.10285e-11
5.26994e-06
3.39664e-10
5.2698e-06
7.82336e-11
5.26982e-06
4.18064e-10
5.26968e-06
1.50262e-10
5.26968e-06
4.70466e-10
5.26954e-06
1.87979e-10
5.26955e-06
4.80897e-10
5.26941e-06
1.83493e-10
5.26942e-06
4.54042e-10
5.26929e-06
1.47366e-10
5.26931e-06
4.03851e-10
5.2692e-06
9.77475e-11
5.26922e-06
3.51943e-10
5.26912e-06
5.73495e-11
5.26915e-06
3.21235e-10
5.26904e-06
4.50329e-11
5.26907e-06
3.26085e-10
5.26896e-06
6.72761e-11
5.26897e-06
3.6064e-10
5.26885e-06
1.17287e-10
5.26885e-06
4.14747e-10
5.26872e-06
1.79038e-10
5.26871e-06
4.6948e-10
5.26857e-06
2.31526e-10
5.26855e-06
5.04095e-10
5.26842e-06
2.57739e-10
5.2684e-06
5.09814e-10
5.26826e-06
2.5544e-10
5.26825e-06
4.91486e-10
5.26812e-06
2.33832e-10
5.26811e-06
4.60877e-10
5.26799e-06
2.07795e-10
5.26798e-06
4.35313e-10
5.26786e-06
1.94276e-10
5.26785e-06
4.30385e-10
5.26773e-06
2.04133e-10
5.26771e-06
4.48102e-10
5.26759e-06
2.34921e-10
5.26756e-06
4.82738e-10
5.26743e-06
2.78223e-10
5.26739e-06
5.22766e-10
5.26725e-06
3.20341e-10
5.26721e-06
5.53666e-10
5.26707e-06
3.48144e-10
5.26703e-06
5.66674e-10
5.26689e-06
3.57026e-10
5.26684e-06
5.63681e-10
5.2667e-06
3.52662e-10
5.26666e-06
5.51699e-10
5.26652e-06
3.44323e-10
5.26648e-06
5.41987e-10
5.26635e-06
3.4334e-10
5.2663e-06
5.44481e-10
5.26616e-06
3.56574e-10
5.26611e-06
5.60849e-10
5.26597e-06
3.82618e-10
5.26591e-06
5.87861e-10
5.26577e-06
4.16363e-10
5.2657e-06
6.181e-10
5.26555e-06
4.4914e-10
5.26548e-06
6.4267e-10
5.26533e-06
4.73178e-10
5.26526e-06
6.57213e-10
5.2651e-06
4.86857e-10
5.26503e-06
6.63451e-10
5.26487e-06
4.94112e-10
5.2648e-06
6.66059e-10
5.26464e-06
5.008e-10
5.26456e-06
6.71492e-10
5.2644e-06
5.12883e-10
5.26432e-06
6.84302e-10
5.26416e-06
5.32993e-10
5.26407e-06
7.0513e-10
5.26391e-06
5.60366e-10
5.26382e-06
7.31641e-10
5.26365e-06
5.91361e-10
5.26355e-06
7.59252e-10
5.26337e-06
6.21157e-10
5.26327e-06
7.83676e-10
5.26309e-06
6.46423e-10
5.26298e-06
8.03366e-10
5.2628e-06
6.67091e-10
5.26269e-06
8.19859e-10
5.26251e-06
6.85766e-10
5.26239e-06
8.36295e-10
5.26221e-06
7.05961e-10
5.26209e-06
8.55878e-10
5.2619e-06
7.30452e-10
5.26177e-06
8.80567e-10
5.26157e-06
7.60259e-10
5.26144e-06
9.10341e-10
5.26124e-06
7.94403e-10
5.2611e-06
9.43434e-10
5.2609e-06
8.30619e-10
5.26075e-06
9.77455e-10
5.26054e-06
8.66709e-10
5.26039e-06
1.01079e-09
5.26017e-06
9.01778e-10
5.26001e-06
1.04343e-09
5.25979e-06
9.36578e-10
5.25962e-06
1.07674e-09
5.25939e-06
9.72811e-10
5.25922e-06
1.1125e-09
5.25899e-06
1.01227e-09
5.25881e-06
1.1523e-09
5.25857e-06
1.0562e-09
5.25838e-06
1.19687e-09
5.25813e-06
1.10484e-09
5.25793e-06
1.24602e-09
5.25767e-06
1.15767e-09
5.25747e-06
1.29906e-09
5.2572e-06
1.214e-09
5.25698e-06
1.35544e-09
5.2567e-06
1.27351e-09
5.25648e-06
1.41518e-09
5.25619e-06
1.33659e-09
5.25595e-06
1.47906e-09
5.25565e-06
1.40436e-09
5.2554e-06
1.54846e-09
5.25508e-06
1.47841e-09
5.25482e-06
1.62509e-09
5.25449e-06
1.56047e-09
5.25422e-06
1.71065e-09
5.25387e-06
1.65226e-09
5.25358e-06
1.80689e-09
5.25321e-06
1.75558e-09
5.2529e-06
1.91581e-09
5.25252e-06
1.87268e-09
5.25218e-06
2.03992e-09
5.25178e-06
2.00634e-09
5.25142e-06
2.18222e-09
5.25099e-06
2.15965e-09
5.25062e-06
2.34579e-09
5.25017e-06
2.33566e-09
5.24977e-06
2.53352e-09
5.24931e-06
2.53724e-09
5.2489e-06
2.74816e-09
5.24843e-06
2.76699e-09
5.24802e-06
2.99197e-09
5.24755e-06
3.02668e-09
5.24716e-06
3.26573e-09
5.2467e-06
3.3155e-09
5.24633e-06
3.56569e-09
5.24591e-06
3.62264e-09
5.2456e-06
3.85748e-09
5.24521e-06
3.93035e-09
5.24489e-06
4.21035e-09
4.39989e-09
5.24454e-06
5.69155e-06
1.56683e-10
5.69145e-06
6.83758e-11
5.69148e-06
2.5724e-10
5.69135e-06
8.16964e-11
5.69138e-06
2.29905e-10
5.69125e-06
4.97359e-11
5.69129e-06
2.01691e-10
5.69118e-06
2.42965e-11
5.69124e-06
1.91986e-10
5.69115e-06
2.78947e-12
5.69122e-06
1.69977e-10
5.69114e-06
-3.42857e-11
5.69122e-06
1.20857e-10
5.69116e-06
-9.67434e-11
5.69124e-06
4.46764e-11
5.6912e-06
-1.85489e-10
5.6913e-06
-4.12968e-11
5.69128e-06
-2.73115e-10
5.69139e-06
-1.185e-10
5.69137e-06
-3.38492e-10
5.69148e-06
-1.63823e-10
5.69146e-06
-3.59263e-10
5.69156e-06
-1.58407e-10
5.69153e-06
-3.28589e-10
5.69162e-06
-1.0001e-10
5.69157e-06
-2.46108e-10
5.69163e-06
4.30761e-12
5.69156e-06
-1.23832e-10
5.6916e-06
1.44986e-10
5.6915e-06
1.64699e-11
5.69151e-06
2.88066e-10
5.6914e-06
1.49331e-10
5.69139e-06
4.03993e-10
5.69127e-06
2.4233e-10
5.69125e-06
4.69235e-10
5.69113e-06
2.768e-10
5.69112e-06
4.75393e-10
5.69101e-06
2.51999e-10
5.691e-06
4.2549e-10
5.69091e-06
1.79214e-10
5.69092e-06
3.38364e-10
5.69085e-06
8.30716e-11
5.69088e-06
2.42425e-10
5.69081e-06
-5.67833e-12
5.69085e-06
1.68682e-10
5.69079e-06
-6.22541e-11
5.69083e-06
1.42886e-10
5.69077e-06
-6.23526e-11
5.69079e-06
1.72134e-10
5.69072e-06
-1.15379e-11
5.69073e-06
2.47686e-10
5.69064e-06
8.08784e-11
5.69063e-06
3.46997e-10
5.69053e-06
1.82987e-10
5.6905e-06
4.40006e-10
5.69039e-06
2.63382e-10
5.69036e-06
4.97892e-10
5.69025e-06
3.00619e-10
5.69022e-06
5.09753e-10
5.69011e-06
2.90934e-10
5.69009e-06
4.77426e-10
5.68999e-06
2.44465e-10
5.68998e-06
4.18452e-10
5.68989e-06
1.84183e-10
5.68988e-06
3.59692e-10
5.6898e-06
1.37496e-10
5.6898e-06
3.28409e-10
5.68972e-06
1.26608e-10
5.68971e-06
3.36492e-10
5.68962e-06
1.55453e-10
5.6896e-06
3.81117e-10
5.6895e-06
2.16313e-10
5.68946e-06
4.47579e-10
5.68936e-06
2.88047e-10
5.68931e-06
5.11575e-10
5.6892e-06
3.45663e-10
5.68915e-06
5.50934e-10
5.68904e-06
3.72512e-10
5.68899e-06
5.58212e-10
5.68888e-06
3.67503e-10
5.68883e-06
5.36999e-10
5.68873e-06
3.40209e-10
5.68868e-06
5.02266e-10
5.68858e-06
3.09294e-10
5.68854e-06
4.75094e-10
5.68844e-06
2.95207e-10
5.6884e-06
4.71896e-10
5.6883e-06
3.07803e-10
5.68825e-06
4.94842e-10
5.68814e-06
3.45098e-10
5.68808e-06
5.37846e-10
5.68797e-06
3.96067e-10
5.6879e-06
5.8557e-10
5.68778e-06
4.43458e-10
5.68771e-06
6.21486e-10
5.68759e-06
4.73411e-10
5.68752e-06
6.37624e-10
5.68739e-06
4.82788e-10
5.68732e-06
6.34866e-10
5.6872e-06
4.76613e-10
5.68713e-06
6.21986e-10
5.687e-06
4.66731e-10
5.68693e-06
6.12634e-10
5.68681e-06
4.66383e-10
5.68674e-06
6.17193e-10
5.68661e-06
4.82052e-10
5.68653e-06
6.38022e-10
5.6864e-06
5.13097e-10
5.68632e-06
6.71276e-10
5.68618e-06
5.5247e-10
5.68609e-06
7.07422e-10
5.68595e-06
5.89624e-10
5.68586e-06
7.36783e-10
5.68572e-06
6.1671e-10
5.68562e-06
7.54963e-10
5.68547e-06
6.32408e-10
5.68537e-06
7.63249e-10
5.68523e-06
6.40618e-10
5.68513e-06
7.67538e-10
5.68498e-06
6.48524e-10
5.68487e-06
7.7524e-10
5.68472e-06
6.62711e-10
5.68462e-06
7.9139e-10
5.68446e-06
6.86475e-10
5.68435e-06
8.17163e-10
5.68419e-06
7.18809e-10
5.68408e-06
8.4943e-10
5.68391e-06
7.55017e-10
5.68379e-06
8.82679e-10
5.68362e-06
7.89495e-10
5.68349e-06
9.12149e-10
5.68332e-06
8.18734e-10
5.68319e-06
9.36142e-10
5.68301e-06
8.42802e-10
5.68287e-06
9.56343e-10
5.6827e-06
8.64681e-10
5.68256e-06
9.76463e-10
5.68237e-06
8.88446e-10
5.68223e-06
1.00037e-09
5.68204e-06
9.17378e-10
5.68189e-06
1.03035e-09
5.6817e-06
9.52586e-10
5.68154e-06
1.06625e-09
5.68134e-06
9.92772e-10
5.68118e-06
1.1059e-09
5.68098e-06
1.03522e-09
5.68081e-06
1.1465e-09
5.6806e-06
1.07745e-09
5.68042e-06
1.18624e-09
5.68021e-06
1.11849e-09
5.68002e-06
1.2251e-09
5.6798e-06
1.15918e-09
5.67961e-06
1.2646e-09
5.67939e-06
1.20152e-09
5.67919e-06
1.30694e-09
5.67896e-06
1.24767e-09
5.67875e-06
1.354e-09
5.67851e-06
1.29908e-09
5.6783e-06
1.40665e-09
5.67805e-06
1.35601e-09
5.67783e-06
1.46462e-09
5.67757e-06
1.41781e-09
5.67734e-06
1.52706e-09
5.67707e-06
1.48361e-09
5.67684e-06
1.59325e-09
5.67656e-06
1.553e-09
5.67631e-06
1.66319e-09
5.67602e-06
1.62642e-09
5.67576e-06
1.7378e-09
5.67546e-06
1.7052e-09
5.67519e-06
1.81871e-09
5.67488e-06
1.79119e-09
5.67459e-06
1.90785e-09
5.67427e-06
1.88634e-09
5.67397e-06
2.00713e-09
5.67363e-06
1.99244e-09
5.67332e-06
2.11826e-09
5.67296e-06
2.11113e-09
5.67264e-06
2.24279e-09
5.67227e-06
2.24394e-09
5.67192e-06
2.38224e-09
5.67154e-06
2.39236e-09
5.67118e-06
2.53809e-09
5.67078e-06
2.55792e-09
5.67042e-06
2.71189e-09
5.67001e-06
2.74223e-09
5.66964e-06
2.90524e-09
5.66923e-06
2.94683e-09
5.66886e-06
3.11952e-09
5.66845e-06
3.17279e-09
5.66809e-06
3.35522e-09
5.6677e-06
3.41973e-09
5.66735e-06
3.61053e-09
5.66698e-06
3.68328e-09
5.66668e-06
3.8734e-09
5.66636e-06
3.94107e-09
5.66607e-06
4.1446e-09
5.66576e-06
4.24087e-09
5.66551e-06
4.45983e-09
4.65189e-09
5.66526e-06
6.14592e-06
1.06359e-10
6.14589e-06
9.96171e-11
6.14591e-06
2.40877e-10
6.14583e-06
1.60103e-10
6.1458e-06
2.52761e-10
6.14571e-06
1.40033e-10
6.14569e-06
2.26733e-10
6.14561e-06
1.05552e-10
6.14561e-06
1.92987e-10
6.14555e-06
6.09137e-11
6.14557e-06
1.47447e-10
6.14554e-06
9.75567e-13
6.14557e-06