/*--------------------------------*- C++ -*----------------------------------*\
| =========                 |                                                 |
| \\      /  F ield         | OpenFOAM: The Open Source CFD Toolbox           |
|  \\    /   O peration     | Version:  v1912                                 |
|   \\  /    A nd           | Website:  www.openfoam.com                      |
|    \\/     M anipulation  |                                                 |
\*---------------------------------------------------------------------------*/
FoamFile
{
    version     2.0;
    format      ascii;
    class       volVectorField;
    location    "0.6";
    object      U;
}
// * * * * * * * * * * * * * * * * * * * * * * * * * * * * * * * * * * * * * //

dimensions      [0 1 -1 0 0 0 0];


internalField   nonuniform List<vector> 
12000
(
(0.999481 8.67415e-05 0)
(1.00054 -9.46715e-05 0)
(0.999497 8.59608e-05 0)
(1.00055 -9.21062e-05 0)
(0.999498 8.82738e-05 0)
(1.00055 -8.99397e-05 0)
(0.999483 8.89587e-05 0)
(1.00053 -8.92947e-05 0)
(0.999459 8.86273e-05 0)
(1.00052 -8.90999e-05 0)
(0.999435 8.81408e-05 0)
(1.0005 -8.89108e-05 0)
(0.999417 8.76048e-05 0)
(1.00049 -8.88127e-05 0)
(0.999407 8.69192e-05 0)
(1.00049 -8.88717e-05 0)
(0.999404 8.60453e-05 0)
(1.0005 -8.90753e-05 0)
(0.999406 8.50745e-05 0)
(1.00051 -8.92961e-05 0)
(0.999415 8.4167e-05 0)
(1.00053 -8.93454e-05 0)
(0.999429 8.3494e-05 0)
(1.00055 -8.91065e-05 0)
(0.999445 8.30983e-05 0)
(1.00058 -8.85929e-05 0)
(0.99946 8.30301e-05 0)
(1.0006 -8.77005e-05 0)
(0.99947 8.33574e-05 0)
(1.00061 -8.64253e-05 0)
(0.99947 8.40177e-05 0)
(1.00061 -8.49269e-05 0)
(0.999458 8.47942e-05 0)
(1.0006 -8.34648e-05 0)
(0.999434 8.53783e-05 0)
(1.00057 -8.23039e-05 0)
(0.9994 8.55429e-05 0)
(1.00054 -8.16074e-05 0)
(0.99936 8.52966e-05 0)
(1.00051 -8.11553e-05 0)
(0.99932 8.48836e-05 0)
(1.00048 -8.08624e-05 0)
(0.999288 8.42943e-05 0)
(1.00046 -8.07236e-05 0)
(0.999266 8.36172e-05 0)
(1.00045 -8.05833e-05 0)
(0.999259 8.30332e-05 0)
(1.00045 -8.02836e-05 0)
(0.999261 8.26473e-05 0)
(1.00046 -7.96789e-05 0)
(0.999269 8.26675e-05 0)
(1.00047 -7.8654e-05 0)
(0.999273 8.30891e-05 0)
(1.00048 -7.72945e-05 0)
(0.999267 8.37583e-05 0)
(1.00047 -7.58638e-05 0)
(0.999246 8.43584e-05 0)
(1.00045 -7.46725e-05 0)
(0.999211 8.45916e-05 0)
(1.00041 -7.39229e-05 0)
(0.999167 8.44612e-05 0)
(1.00037 -7.34352e-05 0)
(0.999121 8.41925e-05 0)
(1.00033 -7.3044e-05 0)
(0.999083 8.38894e-05 0)
(1.0003 -7.2712e-05 0)
(0.999058 8.35854e-05 0)
(1.00029 -7.23664e-05 0)
(0.999047 8.339e-05 0)
(1.00029 -7.1829e-05 0)
(0.999045 8.35339e-05 0)
(1.00029 -7.09044e-05 0)
(0.999041 8.40762e-05 0)
(1.00029 -6.9696e-05 0)
(0.999029 8.48273e-05 0)
(1.00028 -6.84493e-05 0)
(0.999003 8.54935e-05 0)
(1.00025 -6.74479e-05 0)
(0.998963 8.58742e-05 0)
(1.00021 -6.67757e-05 0)
(0.998915 8.59937e-05 0)
(1.00016 -6.63334e-05 0)
(0.998866 8.59916e-05 0)
(1.00012 -6.59783e-05 0)
(0.998826 8.59991e-05 0)
(1.00009 -6.56012e-05 0)
(0.998799 8.61187e-05 0)
(1.00008 -6.50809e-05 0)
(0.998781 8.64863e-05 0)
(1.00007 -6.42948e-05 0)
(0.998767 8.71698e-05 0)
(1.00006 -6.32567e-05 0)
(0.998748 8.80696e-05 0)
(1.00004 -6.21351e-05 0)
(0.998719 8.89962e-05 0)
(1.00001 -6.11122e-05 0)
(0.998676 8.97999e-05 0)
(0.999966 -6.02879e-05 0)
(0.998624 9.04371e-05 0)
(0.999919 -5.96537e-05 0)
(0.998571 9.09734e-05 0)
(0.999874 -5.91056e-05 0)
(0.998523 9.15327e-05 0)
(0.999838 -5.85228e-05 0)
(0.998484 9.22243e-05 0)
(0.999811 -5.78059e-05 0)
(0.998453 9.31351e-05 0)
(0.999789 -5.68941e-05 0)
(0.998425 9.42861e-05 0)
(0.999768 -5.5814e-05 0)
(0.998392 9.56109e-05 0)
(0.999739 -5.46636e-05 0)
(0.99835 9.69992e-05 0)
(0.999701 -5.35517e-05 0)
(0.998298 9.83599e-05 0)
(0.999654 -5.25426e-05 0)
(0.998239 9.96662e-05 0)
(0.999604 -5.1628e-05 0)
(0.998179 0.000100963 0)
(0.999556 -5.07367e-05 0)
(0.998123 0.000102339 0)
(0.999513 -4.97814e-05 0)
(0.998073 0.000103873 0)
(0.999477 -4.86976e-05 0)
(0.998027 0.000105613 0)
(0.999443 -4.74623e-05 0)
(0.99798 0.000107557 0)
(0.999407 -4.60966e-05 0)
(0.997929 0.000109672 0)
(0.999365 -4.4659e-05 0)
(0.99787 0.00011189 0)
(0.999316 -4.32026e-05 0)
(0.997804 0.000114175 0)
(0.999261 -4.17527e-05 0)
(0.997733 0.000116527 0)
(0.999205 -4.02892e-05 0)
(0.997661 0.000118988 0)
(0.99915 -3.87578e-05 0)
(0.997592 0.000121622 0)
(0.999098 -3.70981e-05 0)
(0.997525 0.000124483 0)
(0.999048 -3.52678e-05 0)
(0.997458 0.000127604 0)
(0.998998 -3.32508e-05 0)
(0.997388 0.00013099 0)
(0.998945 -3.10518e-05 0)
(0.997313 0.000134636 0)
(0.998886 -2.86809e-05 0)
(0.997231 0.00013854 0)
(0.998822 -2.61369e-05 0)
(0.997144 0.000142716 0)
(0.998754 -2.34042e-05 0)
(0.997053 0.000147179 0)
(0.998684 -2.04888e-05 0)
(0.99696 0.000151902 0)
(0.998615 -1.74249e-05 0)
(0.996866 0.000156869 0)
(0.998545 -1.41873e-05 0)
(0.996771 0.000162154 0)
(0.998474 -1.07014e-05 0)
(0.996673 0.000167824 0)
(0.9984 -6.91962e-06 0)
(0.996569 0.000173917 0)
(0.998321 -2.82218e-06 0)
(0.996458 0.000180448 0)
(0.998237 1.58527e-06 0)
(0.996341 0.000187402 0)
(0.998147 6.30838e-06 0)
(0.996217 0.00019478 0)
(0.998053 1.12752e-05 0)
(0.996087 0.000202599 0)
(0.997953 1.66363e-05 0)
(0.995951 0.000210985 0)
(0.99785 2.24634e-05 0)
(0.995808 0.000220047 0)
(0.99774 2.88782e-05 0)
(0.995657 0.000229923 0)
(0.997623 3.6021e-05 0)
(0.995495 0.000240771 0)
(0.997496 4.4054e-05 0)
(0.995321 0.000252776 0)
(0.997358 5.31718e-05 0)
(0.995132 0.000266168 0)
(0.997205 6.36236e-05 0)
(0.994925 0.000281247 0)
(0.997037 7.57593e-05 0)
(0.994699 0.00029846 0)
(0.996848 9.01368e-05 0)
(0.994448 0.000318561 0)
(0.996634 0.000107772 0)
(0.994165 0.000342997 0)
(0.996386 0.000130748 0)
(0.993838 0.000374917 0)
(0.996088 0.000163867 0)
(0.993451 0.000421732 0)
(0.995723 0.000218294 0)
(0.99298 0.00049987 0)
(0.995265 0.000317122 0)
(0.992402 0.000640348 0)
(0.994694 0.000499633 0)
(0.999842 8.24594e-05 0)
(1.00017 -9.87272e-05 0)
(0.999864 8.2343e-05 0)
(1.00019 -9.29698e-05 0)
(0.999867 8.91345e-05 0)
(1.00018 -8.83114e-05 0)
(0.999852 9.18316e-05 0)
(1.00017 -8.76349e-05 0)
(0.99983 9.18907e-05 0)
(1.00015 -8.81977e-05 0)
(0.999807 9.1487e-05 0)
(1.00013 -8.89275e-05 0)
(0.999791 9.08291e-05 0)
(1.00012 -9.00267e-05 0)
(0.999781 8.96446e-05 0)
(1.00012 -9.16913e-05 0)
(0.999778 8.78992e-05 0)
(1.00013 -9.37556e-05 0)
(0.999782 8.59532e-05 0)
(1.00014 -9.57545e-05 0)
(0.999791 8.43329e-05 0)
(1.00016 -9.71373e-05 0)
(0.999806 8.35573e-05 0)
(1.00018 -9.75154e-05 0)
(0.999823 8.3838e-05 0)
(1.0002 -9.67941e-05 0)
(0.999838 8.53308e-05 0)
(1.00022 -9.47958e-05 0)
(0.999848 8.80635e-05 0)
(1.00023 -9.16822e-05 0)
(0.999849 9.16631e-05 0)
(1.00023 -8.80488e-05 0)
(0.999837 9.53927e-05 0)
(1.00022 -8.47248e-05 0)
(0.999814 9.83774e-05 0)
(1.0002 -8.25044e-05 0)
(0.99978 9.99758e-05 0)
(1.00016 -8.18304e-05 0)
(0.99974 0.000100083 0)
(1.00013 -8.23592e-05 0)
(0.9997 9.92101e-05 0)
(1.0001 -8.3707e-05 0)
(0.999668 9.76579e-05 0)
(1.00007 -8.54965e-05 0)
(0.999647 9.59564e-05 0)
(1.00007 -8.70513e-05 0)
(0.99964 9.48231e-05 0)
(1.00007 -8.77598e-05 0)
(0.999644 9.47053e-05 0)
(1.00008 -8.72547e-05 0)
(0.999652 9.59923e-05 0)
(1.00009 -8.52867e-05 0)
(0.999658 9.86068e-05 0)
(1.00009 -8.22416e-05 0)
(0.999653 0.000101914 0)
(1.00008 -7.90254e-05 0)
(0.999633 0.000104833 0)
(1.00006 -7.66868e-05 0)
(0.9996 0.0001065 0)
(1.00002 -7.58156e-05 0)
(0.999557 0.000106753 0)
(0.999978 -7.61382e-05 0)
(0.999513 0.000106118 0)
(0.999937 -7.70564e-05 0)
(0.999477 0.000105179 0)
(0.999908 -7.80525e-05 0)
(0.999455 0.000104428 0)
(0.999893 -7.86207e-05 0)
(0.999447 0.000104384 0)
(0.999889 -7.82395e-05 0)
(0.999447 0.000105557 0)
(0.999889 -7.65412e-05 0)
(0.999447 0.000107976 0)
(0.999884 -7.39091e-05 0)
(0.999438 0.000110979 0)
(0.999867 -7.11579e-05 0)
(0.999415 0.000113646 0)
(0.999834 -6.9194e-05 0)
(0.999378 0.00011528 0)
(0.99979 -6.8404e-05 0)
(0.999333 0.000115815 0)
(0.999741 -6.8567e-05 0)
(0.999288 0.000115699 0)
(0.999697 -6.91097e-05 0)
(0.999252 0.000115532 0)
(0.999664 -6.94595e-05 0)
(0.999229 0.000115859 0)
(0.999643 -6.91097e-05 0)
(0.999216 0.000117128 0)
(0.999629 -6.77382e-05 0)
(0.999207 0.000119449 0)
(0.999615 -6.54973e-05 0)
(0.999193 0.000122414 0)
(0.999592 -6.29708e-05 0)
(0.999169 0.000125371 0)
(0.999556 -6.08068e-05 0)
(0.999131 0.000127768 0)
(0.999509 -5.94014e-05 0)
(0.999085 0.000129403 0)
(0.999456 -5.87459e-05 0)
(0.999038 0.000130494 0)
(0.999405 -5.84564e-05 0)
(0.998996 0.000131524 0)
(0.999362 -5.80297e-05 0)
(0.998963 0.000132976 0)
(0.999329 -5.70451e-05 0)
(0.998939 0.00013518 0)
(0.999301 -5.53023e-05 0)
(0.998918 0.000138167 0)
(0.999273 -5.29437e-05 0)
(0.998892 0.000141652 0)
(0.999237 -5.03574e-05 0)
(0.998857 0.000145211 0)
(0.999191 -4.79596e-05 0)
(0.998813 0.000148493 0)
(0.999137 -4.59985e-05 0)
(0.998762 0.00015138 0)
(0.999079 -4.44483e-05 0)
(0.99871 0.000154041 0)
(0.999022 -4.30403e-05 0)
(0.998663 0.000156806 0)
(0.998971 -4.14335e-05 0)
(0.998621 0.000159994 0)
(0.998926 -3.93653e-05 0)
(0.998584 0.00016379 0)
(0.998884 -3.67512e-05 0)
(0.998547 0.000168175 0)
(0.998838 -3.37102e-05 0)
(0.998506 0.000172965 0)
(0.998787 -3.04605e-05 0)
(0.998457 0.00017793 0)
(0.998727 -2.72439e-05 0)
(0.998401 0.000182873 0)
(0.998662 -2.4177e-05 0)
(0.998341 0.000187774 0)
(0.998595 -2.11924e-05 0)
(0.99828 0.000192782 0)
(0.998529 -1.80875e-05 0)
(0.998223 0.000198134 0)
(0.998466 -1.4632e-05 0)
(0.998168 0.000204034 0)
(0.998405 -1.06703e-05 0)
(0.998113 0.000210585 0)
(0.998343 -6.16674e-06 0)
(0.998056 0.00021777 0)
(0.998277 -1.18828e-06 0)
(0.997994 0.000225499 0)
(0.998205 4.15946e-06 0)
(0.997926 0.000233681 0)
(0.998127 9.80499e-06 0)
(0.997853 0.000242284 0)
(0.998045 1.57464e-05 0)
(0.997777 0.000251341 0)
(0.997961 2.20272e-05 0)
(0.9977 0.000260913 0)
(0.997877 2.87248e-05 0)
(0.997622 0.000271113 0)
(0.997792 3.59813e-05 0)
(0.997544 0.000282112 0)
(0.997705 4.39483e-05 0)
(0.997462 0.000294036 0)
(0.997614 5.2704e-05 0)
(0.997376 0.000306931 0)
(0.997518 6.22515e-05 0)
(0.997285 0.000320785 0)
(0.997416 7.25557e-05 0)
(0.997187 0.000335571 0)
(0.997307 8.36256e-05 0)
(0.997083 0.00035132 0)
(0.997193 9.54496e-05 0)
(0.996974 0.000368162 0)
(0.997074 0.000108328 0)
(0.996861 0.000386395 0)
(0.99695 0.000122512 0)
(0.996741 0.000406324 0)
(0.996819 0.000138328 0)
(0.996614 0.000428306 0)
(0.99668 0.000156141 0)
(0.996479 0.000452743 0)
(0.99653 0.00017637 0)
(0.996332 0.000480113 0)
(0.996368 0.000199539 0)
(0.996172 0.000511037 0)
(0.996192 0.000226361 0)
(0.995997 0.000546389 0)
(0.995999 0.000257891 0)
(0.995804 0.00058751 0)
(0.995786 0.000295823 0)
(0.995589 0.000636655 0)
(0.99555 0.000343193 0)
(0.995348 0.00069806 0)
(0.995283 0.000405908 0)
(0.995074 0.000780055 0)
(0.994981 0.000495521 0)
(0.994764 0.000898489 0)
(0.994641 0.000633231 0)
(0.994418 0.00108109 0)
(0.994269 0.000854218 0)
(0.994047 0.00137094 0)
(0.993879 0.00120917 0)
(1.00013 6.32131e-05 0)
(0.999893 -7.17505e-05 0)
(1.00015 6.40675e-05 0)
(0.999911 -6.66264e-05 0)
(1.00015 6.96862e-05 0)
(0.999908 -6.22471e-05 0)
(1.00013 7.21051e-05 0)
(0.999893 -6.13249e-05 0)
(1.00011 7.20269e-05 0)
(0.999877 -6.18432e-05 0)
(1.00008 7.11654e-05 0)
(0.999864 -6.2947e-05 0)
(1.00006 6.95898e-05 0)
(0.999859 -6.49681e-05 0)
(1.00004 6.68998e-05 0)
(0.999862 -6.81198e-05 0)
(1.00004 6.32346e-05 0)
(0.999872 -7.19084e-05 0)
(1.00004 5.93583e-05 0)
(0.999889 -7.54186e-05 0)
(1.00004 5.62256e-05 0)
(0.999912 -7.7694e-05 0)
(1.00005 5.47663e-05 0)
(0.999939 -7.79539e-05 0)
(1.00006 5.55329e-05 0)
(0.999967 -7.58871e-05 0)
(1.00007 5.86836e-05 0)
(0.999993 -7.15094e-05 0)
(1.00008 6.39583e-05 0)
(1.00001 -6.53427e-05 0)
(1.00007 7.05333e-05 0)
(1.00002 -5.85272e-05 0)
(1.00006 7.70321e-05 0)
(1.00001 -5.25113e-05 0)
(1.00003 8.20161e-05 0)
(0.999993 -4.86714e-05 0)
(0.999986 8.43433e-05 0)
(0.999966 -4.77617e-05 0)
(0.99994 8.37275e-05 0)
(0.999936 -4.95414e-05 0)
(0.999894 8.083e-05 0)
(0.99991 -5.31241e-05 0)
(0.999855 7.66759e-05 0)
(0.999894 -5.732e-05 0)
(0.999829 7.25565e-05 0)
(0.999891 -6.07332e-05 0)
(0.999816 6.9886e-05 0)
(0.9999 -6.20871e-05 0)
(0.999814 6.96736e-05 0)
(0.999918 -6.07335e-05 0)
(0.999818 7.22429e-05 0)
(0.999936 -5.66436e-05 0)
(0.999818 7.71753e-05 0)
(0.999945 -5.07805e-05 0)
(0.999807 8.31172e-05 0)
(0.999941 -4.47773e-05 0)
(0.999781 8.81475e-05 0)
(0.999921 -4.05191e-05 0)
(0.999742 9.07544e-05 0)
(0.999888 -3.90979e-05 0)
(0.999693 9.04461e-05 0)
(0.99985 -4.02874e-05 0)
(0.999643 8.80646e-05 0)
(0.999815 -4.28728e-05 0)
(0.999602 8.49817e-05 0)
(0.999791 -4.543e-05 0)
(0.999575 8.25874e-05 0)
(0.999781 -4.6665e-05 0)
(0.999562 8.20408e-05 0)
(0.999783 -4.56382e-05 0)
(0.999558 8.39841e-05 0)
(0.999788 -4.2137e-05 0)
(0.999554 8.81099e-05 0)
(0.999788 -3.70195e-05 0)
(0.99954 9.31377e-05 0)
(0.999775 -3.1803e-05 0)
(0.999512 9.74431e-05 0)
(0.999747 -2.80559e-05 0)
(0.99947 9.97342e-05 0)
(0.999706 -2.66329e-05 0)
(0.99942 9.97295e-05 0)
(0.999661 -2.72016e-05 0)
(0.999372 9.82784e-05 0)
(0.999621 -2.85811e-05 0)
(0.999332 9.66909e-05 0)
(0.999593 -2.94501e-05 0)
(0.999305 9.62253e-05 0)
(0.999576 -2.87203e-05 0)
(0.999289 9.77052e-05 0)
(0.999567 -2.59262e-05 0)
(0.999277 0.000101149 0)
(0.999556 -2.15238e-05 0)
(0.99926 0.000105717 0)
(0.999537 -1.66166e-05 0)
(0.999232 0.000110164 0)
(0.999504 -1.24473e-05 0)
(0.999191 0.000113398 0)
(0.999459 -9.83486e-06 0)
(0.999141 0.000114994 0)
(0.999409 -8.74803e-06 0)
(0.99909 0.000115401 0)
(0.999361 -8.4149e-06 0)
(0.999045 0.000115587 0)
(0.999322 -7.78976e-06 0)
(0.99901 0.000116575 0)
(0.999292 -5.98573e-06 0)
(0.998984 0.000119018 0)
(0.999268 -2.66013e-06 0)
(0.99896 0.000122918 0)
(0.999242 1.85071e-06 0)
(0.998932 0.000127667 0)
(0.999209 6.75596e-06 0)
(0.998895 0.000132398 0)
(0.999166 1.12211e-05 0)
(0.998848 0.000136413 0)
(0.999114 1.47582e-05 0)
(0.998794 0.000139495 0)
(0.999057 1.74427e-05 0)
(0.99874 0.000141986 0)
(0.999003 1.98164e-05 0)
(0.99869 0.000144548 0)
(0.998955 2.25717e-05 0)
(0.998647 0.000147827 0)
(0.998913 2.62379e-05 0)
(0.998608 0.000152184 0)
(0.998873 3.09605e-05 0)
(0.998569 0.000157549 0)
(0.99883 3.64723e-05 0)
(0.998526 0.000163511 0)
(0.998781 4.22896e-05 0)
(0.998475 0.000169568 0)
(0.998723 4.79265e-05 0)
(0.998417 0.000175336 0)
(0.99866 5.31629e-05 0)
(0.998355 0.00018078 0)
(0.998595 5.81433e-05 0)
(0.998293 0.000186199 0)
(0.998531 6.32717e-05 0)
(0.998233 0.000192049 0)
(0.998471 6.89962e-05 0)
(0.998177 0.000198722 0)
(0.998412 7.56059e-05 0)
(0.998121 0.000206385 0)
(0.998352 8.31337e-05 0)
(0.998063 0.000214952 0)
(0.998289 9.13935e-05 0)
(0.997999 0.000224176 0)
(0.998219 0.000100116 0)
(0.99793 0.000233808 0)
(0.998144 0.000109104 0)
(0.997855 0.000243734 0)
(0.998064 0.000118336 0)
(0.997778 0.00025403 0)
(0.997982 0.000127981 0)
(0.997699 0.000264953 0)
(0.9979 0.000138347 0)
(0.997621 0.000276828 0)
(0.997818 0.000149726 0)
(0.997541 0.000289896 0)
(0.997734 0.000162297 0)
(0.997459 0.000304274 0)
(0.997646 0.000176108 0)
(0.997372 0.000319952 0)
(0.997553 0.000191105 0)
(0.99728 0.000336863 0)
(0.997454 0.000207226 0)
(0.997181 0.000354985 0)
(0.997349 0.00022451 0)
(0.997077 0.000374433 0)
(0.997238 0.000243142 0)
(0.996967 0.00039549 0)
(0.997123 0.000263492 0)
(0.996853 0.000418581 0)
(0.997002 0.00028601 0)
(0.996734 0.000444186 0)
(0.996876 0.000311195 0)
(0.996608 0.000472831 0)
(0.996742 0.000339589 0)
(0.996473 0.000505096 0)
(0.996598 0.000371823 0)
(0.996328 0.000541695 0)
(0.996443 0.000408716 0)
(0.996171 0.000583609 0)
(0.996275 0.00045145 0)
(0.996 0.000632302 0)
(0.996093 0.00050185 0)
(0.995813 0.000690086 0)
(0.995894 0.000562856 0)
(0.99561 0.00076074 0)
(0.995677 0.000639311 0)
(0.995387 0.000850468 0)
(0.995441 0.000739048 0)
(0.995147 0.000968972 0)
(0.995188 0.000873732 0)
(0.994891 0.00112981 0)
(0.994923 0.0010585 0)
(0.994628 0.00134912 0)
(0.994655 0.00130967 0)
(0.994368 0.00164234 0)
(0.994395 0.00164092 0)
(1.0003 4.41626e-05 0)
(0.999722 -3.71241e-05 0)
(1.00032 4.69108e-05 0)
(0.99974 -3.59797e-05 0)
(1.00032 4.74627e-05 0)
(0.999738 -3.52749e-05 0)
(1.0003 4.80149e-05 0)
(0.999724 -3.48802e-05 0)
(1.00027 4.80637e-05 0)
(0.999708 -3.52149e-05 0)
(1.00025 4.72408e-05 0)
(0.999697 -3.66565e-05 0)
(1.00022 4.50311e-05 0)
(0.999693 -3.98143e-05 0)
(1.00021 4.09657e-05 0)
(0.999698 -4.47254e-05 0)
(1.0002 3.55117e-05 0)
(0.99971 -5.04746e-05 0)
(1.00019 2.99041e-05 0)
(0.99973 -5.56106e-05 0)
(1.0002 2.56358e-05 0)
(0.999756 -5.86659e-05 0)
(1.0002 2.41056e-05 0)
(0.999787 -5.84789e-05 0)
(1.00021 2.61312e-05 0)
(0.99982 -5.46591e-05 0)
(1.00022 3.17074e-05 0)
(0.999849 -4.75618e-05 0)
(1.00022 4.01666e-05 0)
(0.999871 -3.81768e-05 0)
(1.00022 5.01936e-05 0)
(0.999881 -2.82224e-05 0)
(1.00019 5.97348e-05 0)
(0.999879 -1.98165e-05 0)
(1.00016 6.66924e-05 0)
(0.999864 -1.4934e-05 0)
(1.00011 6.94523e-05 0)
(0.99984 -1.45853e-05 0)
(1.00006 6.77474e-05 0)
(0.999814 -1.83463e-05 0)
(1.00001 6.25544e-05 0)
(0.999792 -2.47665e-05 0)
(0.999968 5.56888e-05 0)
(0.99978 -3.17671e-05 0)
(0.999937 4.93335e-05 0)
(0.999782 -3.71214e-05 0)
(0.999921 4.56632e-05 0)
(0.999797 -3.88707e-05 0)
(0.999916 4.61615e-05 0)
(0.99982 -3.61577e-05 0)
(0.999916 5.09359e-05 0)
(0.999843 -2.95638e-05 0)
(0.999912 5.89296e-05 0)
(0.999858 -2.06816e-05 0)
(0.999897 6.79675e-05 0)
(0.999858 -1.20371e-05 0)
(0.999867 7.53581e-05 0)
(0.999842 -6.35275e-06 0)
(0.999821 7.87631e-05 0)
(0.999812 -5.10526e-06 0)
(0.999766 7.77058e-05 0)
(0.999776 -7.80811e-06 0)
(0.999712 7.34835e-05 0)
(0.999745 -1.26214e-05 0)
(0.999667 6.82998e-05 0)
(0.999726 -1.71341e-05 0)
(0.999636 6.45755e-05 0)
(0.999721 -1.91445e-05 0)
(0.999621 6.41408e-05 0)
(0.999728 -1.7333e-05 0)
(0.999614 6.76413e-05 0)
(0.999739 -1.18537e-05 0)
(0.999606 7.41843e-05 0)
(0.999743 -4.19224e-06 0)
(0.999589 8.17942e-05 0)
(0.999734 3.27663e-06 0)
(0.999557 8.79962e-05 0)
(0.999708 8.30394e-06 0)
(0.99951 9.09987e-05 0)
(0.999669 9.77069e-06 0)
(0.999456 9.05358e-05 0)
(0.999627 8.28007e-06 0)
(0.999403 8.79135e-05 0)
(0.99959 5.6211e-06 0)
(0.99936 8.52016e-05 0)
(0.999565 3.9401e-06 0)
(0.999332 8.44154e-05 0)
(0.999553 4.92251e-06 0)
(0.999314 8.67135e-05 0)
(0.999548 9.05224e-06 0)
(0.9993 9.18792e-05 0)
(0.999541 1.54778e-05 0)
(0.99928 9.85589e-05 0)
(0.999524 2.24841e-05 0)
(0.999249 0.000104855 0)
(0.999493 2.82126e-05 0)
(0.999204 0.000109163 0)
(0.99945 3.15159e-05 0)
(0.999151 0.000110958 0)
(0.999402 3.25483e-05 0)
(0.999097 0.000110993 0)
(0.999357 3.25118e-05 0)
(0.99905 0.000110765 0)
(0.99932 3.30305e-05 0)
(0.999013 0.00011184 0)
(0.999294 3.54297e-05 0)
(0.998986 0.000115141 0)
(0.999273 4.0118e-05 0)
(0.998961 0.000120559 0)
(0.99925 4.65126e-05 0)
(0.998931 0.00012713 0)
(0.999219 5.33868e-05 0)
(0.998891 0.00013352 0)
(0.999177 5.94749e-05 0)
(0.998841 0.000138693 0)
(0.999126 6.40952e-05 0)
(0.998785 0.000142404 0)
(0.999071 6.7437e-05 0)
(0.998729 0.000145222 0)
(0.999019 7.0355e-05 0)
(0.998678 0.00014817 0)
(0.998973 7.39118e-05 0)
(0.998634 0.000152226 0)
(0.998933 7.88768e-05 0)
(0.998595 0.000157874 0)
(0.998896 8.54085e-05 0)
(0.998555 0.000164954 0)
(0.998855 9.30596e-05 0)
(0.998511 0.000172802 0)
(0.998807 0.000101033 0)
(0.998458 0.000180602 0)
(0.998751 0.00010862 0)
(0.998399 0.000187839 0)
(0.998689 0.000115546 0)
(0.998335 0.000194513 0)
(0.998625 0.000122074 0)
(0.998272 0.000201104 0)
(0.998563 0.000128829 0)
(0.998212 0.000208301 0)
(0.998504 0.000136472 0)
(0.998155 0.000216662 0)
(0.998447 0.0001454 0)
(0.9981 0.00022639 0)
(0.998389 0.000155612 0)
(0.998041 0.000237305 0)
(0.998327 0.000166783 0)
(0.997977 0.000248996 0)
(0.998259 0.000178482 0)
(0.997907 0.000261074 0)
(0.998185 0.000190416 0)
(0.997832 0.000273386 0)
(0.998106 0.000202593 0)
(0.997754 0.000286103 0)
(0.998026 0.000215321 0)
(0.997676 0.000299636 0)
(0.997946 0.000229062 0)
(0.997598 0.000314445 0)
(0.997866 0.000244225 0)
(0.997519 0.000330856 0)
(0.997784 0.000261029 0)
(0.997438 0.00034898 0)
(0.997699 0.000279488 0)
(0.997352 0.000368758 0)
(0.997608 0.000299495 0)
(0.99726 0.000390079 0)
(0.99751 0.000320975 0)
(0.997162 0.00041294 0)
(0.997407 0.00034402 0)
(0.997059 0.000437543 0)
(0.997299 0.000368937 0)
(0.996951 0.000464302 0)
(0.997187 0.000396232 0)
(0.996839 0.000493794 0)
(0.997071 0.000426522 0)
(0.996723 0.000526661 0)
(0.996949 0.000460465 0)
(0.9966 0.000563582 0)
(0.99682 0.000498762 0)
(0.99647 0.000605306 0)
(0.996683 0.000542236 0)
(0.99633 0.000652771 0)
(0.996535 0.000591985 0)
(0.99618 0.000707305 0)
(0.996377 0.000649629 0)
(0.996019 0.000770902 0)
(0.996207 0.000717621 0)
(0.995847 0.000846575 0)
(0.996026 0.000799621 0)
(0.995663 0.000938715 0)
(0.995834 0.000900782 0)
(0.995471 0.00105323 0)
(0.995635 0.00102767 0)
(0.995271 0.00119718 0)
(0.995431 0.00118762 0)
(0.99507 0.00137791 0)
(0.995227 0.00138765 0)
(0.994872 0.00160172 0)
(0.99503 0.001633 0)
(0.994684 0.00187239 0)
(0.994844 0.00192562 0)
(1.00042 2.84121e-05 0)
(0.999593 -1.04034e-05 0)
(1.00044 3.4163e-05 0)
(0.999607 -1.13752e-05 0)
(1.00044 3.10966e-05 0)
(0.999603 -1.44783e-05 0)
(1.00043 2.9387e-05 0)
(0.999587 -1.5405e-05 0)
(1.0004 2.93822e-05 0)
(0.99957 -1.57477e-05 0)
(1.00037 2.88375e-05 0)
(0.999557 -1.75734e-05 0)
(1.00035 2.61656e-05 0)
(0.999552 -2.19975e-05 0)
(1.00034 2.08363e-05 0)
(0.999555 -2.87585e-05 0)
(1.00033 1.37585e-05 0)
(0.999567 -3.64574e-05 0)
(1.00032 6.64353e-06 0)
(0.999587 -4.31616e-05 0)
(1.00033 1.66822e-06 0)
(0.999614 -4.67047e-05 0)
(1.00034 6.3965e-07 0)
(0.999647 -4.57403e-05 0)
(1.00035 4.42092e-06 0)
(0.999682 -3.99123e-05 0)
(1.00036 1.28668e-05 0)
(0.999713 -2.98676e-05 0)
(1.00036 2.48713e-05 0)
(0.999736 -1.71845e-05 0)
(1.00035 3.84161e-05 0)
(0.999747 -4.25962e-06 0)
(1.00033 5.0849e-05 0)
(0.999745 6.0534e-06 0)
(1.00029 5.9342e-05 0)
(0.999729 1.13375e-05 0)
(1.00024 6.21194e-05 0)
(0.999706 1.063e-05 0)
(1.00018 5.90665e-05 0)
(0.99968 4.57004e-06 0)
(1.00013 5.14981e-05 0)
(0.999659 -4.80134e-06 0)
(1.00008 4.20298e-05 0)
(0.999649 -1.44709e-05 0)
(1.00005 3.38602e-05 0)
(0.999655 -2.13033e-05 0)
(1.00004 2.98549e-05 0)
(0.999674 -2.28846e-05 0)
(1.00003 3.16919e-05 0)
(0.999701 -1.84507e-05 0)
(1.00003 3.91941e-05 0)
(0.999729 -9.07735e-06 0)
(1.00003 5.0502e-05 0)
(0.999747 2.81357e-06 0)
(1.00001 6.2543e-05 0)
(0.999748 1.36008e-05 0)
(0.999973 7.17299e-05 0)
(0.999733 2.00656e-05 0)
(0.999922 7.54923e-05 0)
(0.999703 2.07159e-05 0)
(0.999863 7.35163e-05 0)
(0.999669 1.63096e-05 0)
(0.999805 6.74999e-05 0)
(0.999641 9.30617e-06 0)
(0.999757 6.04967e-05 0)
(0.999625 3.0941e-06 0)
(0.999725 5.59086e-05 0)
(0.999625 7.07125e-07 0)
(0.999708 5.61055e-05 0)
(0.999637 3.6169e-06 0)
(0.999701 6.1555e-05 0)
(0.999652 1.12644e-05 0)
(0.999692 7.07615e-05 0)
(0.99966 2.14044e-05 0)
(0.999672 8.0886e-05 0)
(0.999652 3.08057e-05 0)
(0.999635 8.87132e-05 0)
(0.999627 3.6665e-05 0)
(0.999584 9.21618e-05 0)
(0.99959 3.78654e-05 0)
(0.999525 9.11633e-05 0)
(0.999549 3.53196e-05 0)
(0.999469 8.74741e-05 0)
(0.999515 3.14431e-05 0)
(0.999424 8.39347e-05 0)
(0.999494 2.91839e-05 0)
(0.999394 8.32472e-05 0)
(0.999486 3.06792e-05 0)
(0.999376 8.67397e-05 0)
(0.999486 3.63227e-05 0)
(0.99936 9.39065e-05 0)
(0.999482 4.48203e-05 0)
(0.999339 0.000102797 0)
(0.999468 5.37797e-05 0)
(0.999304 0.000110859 0)
(0.999438 6.07885e-05 0)
(0.999255 0.000116118 0)
(0.999396 6.45533e-05 0)
(0.999198 0.00011809 0)
(0.999349 6.5408e-05 0)
(0.999141 0.000117848 0)
(0.999306 6.5014e-05 0)
(0.999092 0.000117448 0)
(0.999273 6.55695e-05 0)
(0.999054 0.000118954 0)
(0.99925 6.8743e-05 0)
(0.999026 0.000123451 0)
(0.999233 7.49374e-05 0)
(0.999 0.000130663 0)
(0.999213 8.32693e-05 0)
(0.998969 0.000139222 0)
(0.999184 9.20516e-05 0)
(0.998926 0.000147342 0)
(0.999144 9.96293e-05 0)
(0.998873 0.000153718 0)
(0.999094 0.000105203 0)
(0.998814 0.00015813 0)
(0.99904 0.000109119 0)
(0.998756 0.000161417 0)
(0.99899 0.000112577 0)
(0.998704 0.000164987 0)
(0.998947 0.000117007 0)
(0.998659 0.000170114 0)
(0.99891 0.000123379 0)
(0.998619 0.000177369 0)
(0.998876 0.00013182 0)
(0.998579 0.000186449 0)
(0.998837 0.000141651 0)
(0.998533 0.000196399 0)
(0.998791 0.000151773 0)
(0.998479 0.000206135 0)
(0.998736 0.000161265 0)
(0.998417 0.000215014 0)
(0.998675 0.00016983 0)
(0.998351 0.000223111 0)
(0.998613 0.000177885 0)
(0.998287 0.000231118 0)
(0.998553 0.000186294 0)
(0.998227 0.000239959 0)
(0.998497 0.000195925 0)
(0.99817 0.000250347 0)
(0.998443 0.000207262 0)
(0.998114 0.000262494 0)
(0.998388 0.000220241 0)
(0.998055 0.000276097 0)
(0.998328 0.000234378 0)
(0.99799 0.00029057 0)
(0.998262 0.000249077 0)
(0.997919 0.000305398 0)
(0.998189 0.000263972 0)
(0.997843 0.000320417 0)
(0.998113 0.000279123 0)
(0.997765 0.000335899 0)
(0.998035 0.000294977 0)
(0.997686 0.00035241 0)
(0.997958 0.00031215 0)
(0.997608 0.000370547 0)
(0.997881 0.000331158 0)
(0.99753 0.000390706 0)
(0.997802 0.000352251 0)
(0.99745 0.000412987 0)
(0.99772 0.0003754 0)
(0.997364 0.000437273 0)
(0.997632 0.000400443 0)
(0.997273 0.000463411 0)
(0.997538 0.000427292 0)
(0.997176 0.000491417 0)
(0.997439 0.000456087 0)
(0.997074 0.000521573 0)
(0.997335 0.000487251 0)
(0.996968 0.000554426 0)
(0.997228 0.000521429 0)
(0.996859 0.000590695 0)
(0.997117 0.000559382 0)
(0.996746 0.000631162 0)
(0.997001 0.0006019 0)
(0.996628 0.000676627 0)
(0.99688 0.000649804 0)
(0.996504 0.000727958 0)
(0.996752 0.000704048 0)
(0.996371 0.000786245 0)
(0.996615 0.000765905 0)
(0.996231 0.000853006 0)
(0.99647 0.00083719 0)
(0.996082 0.0009304 0)
(0.996318 0.000920435 0)
(0.995927 0.00102134 0)
(0.99616 0.00101892 0)
(0.995767 0.00112943 0)
(0.995998 0.00113646 0)
(0.995605 0.0012586 0)
(0.995836 0.00127703 0)
(0.995443 0.00141269 0)
(0.995675 0.00144415 0)
(0.995285 0.00159484 0)
(0.995519 0.00164046 0)
(0.995134 0.00180703 0)
(0.995373 0.00186717 0)
(0.994995 0.00204962 0)
(0.995239 0.00212378 0)
(1.0005 1.80102e-05 0)
(0.999499 3.74515e-06 0)
(1.00053 2.72516e-05 0)
(0.999507 4.54282e-06 0)
(1.00053 2.46227e-05 0)
(0.9995 3.97732e-07 0)
(1.00052 2.15789e-05 0)
(0.999483 -2.12042e-06 0)
(1.00049 2.04623e-05 0)
(0.999463 -3.6022e-06 0)
(1.00047 1.9167e-05 0)
(0.999447 -6.62807e-06 0)
(1.00045 1.5367e-05 0)
(0.999439 -1.2596e-05 0)
(1.00043 8.57748e-06 0)
(0.99944 -2.11677e-05 0)
(1.00042 -1.13699e-07 0)
(0.99945 -3.06322e-05 0)
(1.00042 -8.52506e-06 0)
(0.999469 -3.84862e-05 0)
(1.00043 -1.39595e-05 0)
(0.999497 -4.21537e-05 0)
(1.00044 -1.43175e-05 0)
(0.99953 -4.01223e-05 0)
(1.00045 -8.67643e-06 0)
(0.999565 -3.20452e-05 0)
(1.00047 2.70265e-06 0)
(0.999597 -1.88786e-05 0)
(1.00047 1.82465e-05 0)
(0.99962 -2.85119e-06 0)
(1.00046 3.51181e-05 0)
(0.99963 1.28034e-05 0)
(1.00044 4.99076e-05 0)
(0.999626 2.46424e-05 0)
(1.0004 5.94083e-05 0)
(0.999608 3.005e-05 0)
(1.00035 6.18302e-05 0)
(0.999582 2.81619e-05 0)
(1.00029 5.71689e-05 0)
(0.999555 1.98527e-05 0)
(1.00023 4.72417e-05 0)
(0.999533 7.84549e-06 0)
(1.00019 3.54606e-05 0)
(0.999525 -3.98046e-06 0)
(1.00016 2.58811e-05 0)
(0.999533 -1.17298e-05 0)
(1.00014 2.19089e-05 0)
(0.999556 -1.27193e-05 0)
(1.00014 2.52775e-05 0)
(0.999587 -6.30795e-06 0)
(1.00014 3.54809e-05 0)
(0.999617 5.94543e-06 0)
(1.00013 4.98883e-05 0)
(0.999636 2.04938e-05 0)
(1.00011 6.43377e-05 0)
(0.999638 3.2908e-05 0)
(1.00008 7.46673e-05 0)
(0.999621 3.98041e-05 0)
(1.00002 7.8447e-05 0)
(0.999591 3.97686e-05 0)
(0.999958 7.54423e-05 0)
(0.999557 3.37903e-05 0)
(0.999897 6.78108e-05 0)
(0.999529 2.50259e-05 0)
(0.999848 5.94297e-05 0)
(0.999516 1.76997e-05 0)
(0.999816 5.44433e-05 0)
(0.999521 1.54162e-05 0)
(0.999801 5.5533e-05 0)
(0.999538 1.96852e-05 0)
(0.999793 6.29817e-05 0)
(0.999557 2.95699e-05 0)
(0.999784 7.47013e-05 0)
(0.999567 4.19907e-05 0)
(0.999761 8.69624e-05 0)
(0.99956 5.3014e-05 0)
(0.999721 9.60354e-05 0)
(0.999535 5.949e-05 0)
(0.999665 9.9703e-05 0)
(0.999497 6.0343e-05 0)
(0.999602 9.80811e-05 0)
(0.999457 5.68278e-05 0)
(0.999543 9.3457e-05 0)
(0.999425 5.20419e-05 0)
(0.999497 8.93943e-05 0)
(0.999408 4.95916e-05 0)
(0.999467 8.90961e-05 0)
(0.999405 5.18903e-05 0)
(0.999449 9.39528e-05 0)
(0.999409 5.92305e-05 0)
(0.999433 0.000103174 0)
(0.999409 6.98284e-05 0)
(0.99941 0.000114185 0)
(0.999396 8.06311e-05 0)
(0.999371 0.000123835 0)
(0.999367 8.8781e-05 0)
(0.999318 0.000129899 0)
(0.999325 9.29153e-05 0)
(0.999257 0.000131976 0)
(0.999279 9.35926e-05 0)
(0.999197 0.000131516 0)
(0.999238 9.29789e-05 0)
(0.999147 0.000131127 0)
(0.999208 9.37876e-05 0)
(0.999109 0.000133281 0)
(0.99919 9.79472e-05 0)
(0.999081 0.00013917 0)
(0.999176 0.00010582 0)
(0.999054 0.000148321 0)
(0.99916 0.000116172 0)
(0.999021 0.000158916 0)
(0.999133 0.000126843 0)
(0.998976 0.000168738 0)
(0.999093 0.000135849 0)
(0.99892 0.000176283 0)
(0.999043 0.000142325 0)
(0.998857 0.000181401 0)
(0.998991 0.000146811 0)
(0.998797 0.00018523 0)
(0.998943 0.00015088 0)
(0.998743 0.000189565 0)
(0.998904 0.000156312 0)
(0.998698 0.000195955 0)
(0.998871 0.000164249 0)
(0.998659 0.000205026 0)
(0.998839 0.000174748 0)
(0.998618 0.000216287 0)
(0.998804 0.000186854 0)
(0.99857 0.000228467 0)
(0.998759 0.000199164 0)
(0.998513 0.000240224 0)
(0.998706 0.000210569 0)
(0.998449 0.000250822 0)
(0.998646 0.000220784 0)
(0.998382 0.000260441 0)
(0.998585 0.000230407 0)
(0.998316 0.000270006 0)
(0.998528 0.000240557 0)
(0.998255 0.000280683 0)
(0.998475 0.000252303 0)
(0.998198 0.000293322 0)
(0.998425 0.000266187 0)
(0.998142 0.000308114 0)
(0.998373 0.000282052 0)
(0.998083 0.000324607 0)
(0.998316 0.000299235 0)
(0.998017 0.000342034 0)
(0.998252 0.000316984 0)
(0.997945 0.000359769 0)
(0.998182 0.000334883 0)
(0.997867 0.000377659 0)
(0.998108 0.000353058 0)
(0.997788 0.000396091 0)
(0.998033 0.000372102 0)
(0.99771 0.000415788 0)
(0.997959 0.000392783 0)
(0.997633 0.000437475 0)
(0.997887 0.000415711 0)
(0.997555 0.000461599 0)
(0.997812 0.000441143 0)
(0.997476 0.000488233 0)
(0.997735 0.000468999 0)
(0.997391 0.000517195 0)
(0.997651 0.000499057 0)
(0.997301 0.00054829 0)
(0.997561 0.000531212 0)
(0.997205 0.000581547 0)
(0.997466 0.000565651 0)
(0.997104 0.000617325 0)
(0.997368 0.000602897 0)
(0.997001 0.000656285 0)
(0.997267 0.000643718 0)
(0.996895 0.000699268 0)