/*--------------------------------*- C++ -*----------------------------------*\
| =========                 |                                                 |
| \\      /  F ield         | OpenFOAM: The Open Source CFD Toolbox           |
|  \\    /   O peration     | Version:  v1912                                 |
|   \\  /    A nd           | Website:  www.openfoam.com                      |
|    \\/     M anipulation  |                                                 |
\*---------------------------------------------------------------------------*/
FoamFile
{
    version     2.0;
    format      ascii;
    class       volScalarField;
    location    "0.1";
    object      p;
}
// * * * * * * * * * * * * * * * * * * * * * * * * * * * * * * * * * * * * * //

dimensions      [0 2 -2 0 0 0 0];


internalField   nonuniform List<scalar> 
12000
(
-4.15891e-08
4.15128e-05
0.000125897
0.000206421
0.000306433
0.000386104
0.000484163
0.000556987
0.000587697
0.000555426
0.000436664
0.000259623
1.04352e-05
-0.000244919
-0.000488246
-0.000649681
-0.000686716
-0.00057631
-0.000323951
1.03022e-05
0.000358844
0.000616837
0.000702232
0.00057957
0.00027195
-0.00012904
-0.000498095
-0.000695096
-0.000635347
-0.000328152
0.000122439
0.000547022
0.000768153
0.000679611
0.000309383
-0.000181101
-0.000564792
-0.000654879
-0.000392936
0.000108394
0.000603063
0.000826174
0.000649989
0.000170757
-0.000345756
-0.000602966
-0.000444071
5.29657e-05
0.000601061
0.00085796
0.00065336
0.000120303
-0.000381796
-0.00050869
-0.000174655
0.000394882
0.000814087
0.000796167
0.000356619
-0.000181825
-0.000404458
-0.000126981
0.000437417
0.000833021
0.000743341
0.000270046
-0.000159779
-0.000178249
0.000198687
0.000614809
0.000719271
0.000477383
0.000159586
6.02693e-05
0.000234339
0.000491439
0.000607144
0.000525698
0.00037132
0.000301155
0.000361407
0.000476066
0.000542455
0.000527084
0.000474378
0.000448223
0.000471885
0.000521611
0.00056041
0.000573467
0.000572564
0.000577375
0.000595962
0.000621762
0.000643932
0.000657437
0.00066534
0.000673165
0.00068422
0.00069786
0.000712491
0.000727269
0.000743108
0.000760943
0.000781074
0.000802707
0.000824752
0.000846317
0.000866751
0.000885842
0.000903326
0.000919608
0.000934964
0.000950395
0.000966249
0.000983378
0.00100175
0.00102209
0.00104424
0.00106865
0.00109447
0.00112122
0.00114726
0.00117197
0.00119441
0.00121513
0.0012344
0.00125355
0.0012731
0.00129414
0.00131693
0.00134214
0.00136961
0.00139934
0.00143045
0.0014621
0.001493
0.00152248
0.00155003
0.00157609
0.00160136
0.00162703
0.00165393
0.00168287
0.00171404
0.00174748
0.00178272
0.00181931
0.0018565
0.00189374
0.00193036
0.00196611
0.00200082
0.00203496
0.00206905
0.0021041
0.0021408
0.00217994
0.00222162
0.00226591
0.0023122
0.00236007
0.00240857
0.00245726
0.00250529
0.00255286
0.00259987
0.00264722
0.00269535
0.00274558
0.00279843
0.00285486
0.00291461
0.00297766
0.00304277
0.00310962
0.00317677
0.0032449
0.0033136
0.00338401
0.00345655
0.0035328
0.00361317
0.00369894
0.00378997
0.00388703
0.00398958
0.00409831
0.00421291
0.00433468
0.00446406
0.00460331
0.0047539
0.00491921
0.0051016
0.00530524
0.00553272
0.00578797
0.00607227
0.00638711
4.75053e-06
4.76256e-05
0.000136453
0.000207097
0.000305954
0.00038561
0.000483369
0.000556033
0.000587524
0.000555307
0.000436615
0.000259329
1.03038e-05
-0.000245196
-0.00048828
-0.000649957
-0.000686647
-0.00057648
-0.000323575
1.06866e-05
0.00035957
0.000617118
0.000702869
0.000579864
0.000271653
-0.000129729
-0.000498754
-0.000696167
-0.000635985
-0.000328083
0.000122909
0.000547378
0.000768752
0.000679886
0.000308861
-0.000182235
-0.000565791
-0.000655721
-0.000393011
0.000108786
0.000603711
0.00082676
0.000650004
0.000169916
-0.000346663
-0.000603909
-0.000444366
5.31293e-05
0.000601732
0.000858655
0.000653327
0.000119501
-0.000382775
-0.000509531
-0.000174677
0.000395243
0.000814811
0.000796261
0.000355834
-0.000183106
-0.000405331
-0.00012708
0.000437934
0.000833478
0.000743216
0.000269098
-0.000160737
-0.000178671
0.000198927
0.000615229
0.000719535
0.000477045
0.000159032
5.97829e-05
0.000234217
0.000491385
0.000607046
0.000525268
0.000370775
0.000300598
0.000361055
0.000475729
0.00054223
0.000526779
0.000474191
0.000448024
0.000471805
0.000521425
0.000560208
0.000573083
0.000572157
0.00057687
0.000595498
0.000621233
0.000643431
0.000656868
0.000664789
0.000672585
0.00068369
0.000697338
0.00071202
0.000726779
0.000742629
0.000760404
0.000780536
0.0008021
0.00082415
0.000845626
0.000866061
0.00088504
0.000902542
0.000918715
0.000934118
0.000949434
0.000965347
0.000982346
0.0010008
0.00102102
0.00104327
0.00106758
0.00109351
0.00112011
0.00114618
0.00117067
0.00119308
0.00121354
0.0012328
0.00125175
0.00127134
0.00129227
0.00131518
0.00134033
0.00136793
0.0013976
0.00142876
0.00146027
0.00149113
0.0015204
0.00154786
0.0015737
0.00159888
0.0016243
0.0016511
0.00167981
0.00171088
0.00174409
0.00177923
0.0018156
0.00185272
0.0018898
0.0019264
0.00196201
0.00199672
0.00203069
0.00206471
0.00209947
0.00213595
0.00217464
0.00221597
0.00225972
0.00230561
0.00235288
0.00240095
0.00244905
0.00249696
0.00254424
0.0025912
0.00263813
0.00268601
0.00273564
0.00278807
0.00284373
0.00290289
0.002965
0.00302949
0.00309538
0.00316215
0.0032294
0.00329747
0.00336682
0.00343852
0.00351346
0.00359268
0.00367673
0.00376614
0.0038609
0.00396113
0.00406668
0.00417782
0.00429481
0.00441839
0.00454928
0.00468847
0.00483667
0.00499446
0.00516161
0.00533747
0.00552034
0.00570827
0.00589886
5.85728e-06
4.65165e-05
0.000134924
0.000207567
0.000308249
0.000389258
0.000488006
0.00056004
0.000591348
0.000558116
0.000437833
0.000258305
7.54924e-06
-0.000250366
-0.000494017
-0.000655411
-0.000690587
-0.000578905
-0.00032303
1.35475e-05
0.000365062
0.000622864
0.000707623
0.000581691
0.00027055
-0.000134393
-0.000504872
-0.00070176
-0.000638943
-0.000327701
0.000126646
0.000552547
0.000773466
0.000681989
0.000307503
-0.00018699
-0.000571371
-0.00065969
-0.000393711
0.000111575
0.000608615
0.000831026
0.000651581
0.000167283
-0.000351759
-0.000608698
-0.000446303
5.49707e-05
0.000606312
0.000863022
0.00065472
0.000116529
-0.000387869
-0.000513586
-0.000175162
0.000398259
0.000819126
0.000798512
0.000354285
-0.000187712
-0.000409548
-0.000128183
0.00044059
0.00083715
0.000744906
0.00026718
-0.000164522
-0.000181456
0.000199231
0.000617636
0.000721802
0.000477124
0.000157091
5.74474e-05
0.000233238
0.000491831
0.000607909
0.000525178
0.000369589
0.000298923
0.000359887
0.000475237
0.000542201
0.000526593
0.00047379
0.00044746
0.000471441
0.000521162
0.000559975
0.000572561
0.000571398
0.000575913
0.000594613
0.000620376
0.000642642
0.000655956
0.000663793
0.00067148
0.000682662
0.00069639
0.000711222
0.000725999
0.000741855
0.000759537
0.000779627
0.000801112
0.000823142
0.000844512
0.000864877
0.000883707
0.000901154
0.000917231
0.000932651
0.000947906
0.000963833
0.000980747
0.000999209
0.00101938
0.0010417
0.00106598
0.00109193
0.00111839
0.00114437
0.00116861
0.00119089
0.00121115
0.00123034
0.00124916
0.00126875
0.0012896
0.00131252
0.00133761
0.00136523
0.00139484
0.00142599
0.0014574
0.00148824
0.00151733
0.0015447
0.00157034
0.00159535
0.00162049
0.00164703
0.00167538
0.00170615
0.00173898
0.00177383
0.0018099
0.00184688
0.0018838
0.0019204
0.00195596
0.00199069
0.00202454
0.00205843
0.00209283
0.00212889
0.00216695
0.00220764
0.00225062
0.00229584
0.00234241
0.00238996
0.00243756
0.00248505
0.00253187
0.0025784
0.00262474
0.00267202
0.00272083
0.00277242
0.00282701
0.00288507
0.00294589
0.00300912
0.00307364
0.00313912
0.00320491
0.0032715
0.00333912
0.00340899
0.0034817
0.00355845
0.00363946
0.00372539
0.00381587
0.00391113
0.00401055
0.00411429
0.00422181
0.00433343
0.0044487
0.00456794
0.00469049
0.00481637
0.00494439
0.00507396
0.00520325
0.00533118
0.00545583
4.2121e-06
4.14476e-05
0.000132499
0.000209017
0.000313727
0.000398102
0.000499804
0.000570786
0.000599263
0.000563607
0.000438689
0.000254835
-8.91993e-07
-0.000262129
-0.000507417
-0.000666648
-0.000698374
-0.000581887
-0.000320573
2.16976e-05
0.000376637
0.000635253
0.000716072
0.000584194
0.000265893
-0.000144777
-0.000518208
-0.00071221
-0.000643308
-0.000324656
0.000135566
0.000564381
0.000782695
0.000684762
0.000302879
-0.000197193
-0.000583201
-0.000667105
-0.000393644
0.000118842
0.000619487
0.000839512
0.000653064
0.000160853
-0.000363076
-0.000618274
-0.000448903
6.06809e-05
0.000616735
0.000871612
0.000655854
0.000109268
-0.00039919
-0.000521486
-0.000174851
0.000406043
0.000828409
0.000802532
0.00034997
-0.000197613
-0.000418089
-0.000129204
0.000447217
0.000845646
0.000748017
0.000262677
-0.000172974
-0.00018688
0.000200607
0.000623637
0.000726492
0.000476748
0.000152296
5.24971e-05
0.000231641
0.000493685
0.000610249
0.000525338
0.000367104
0.000295641
0.000357844
0.000474983
0.000542666
0.000526579
0.000472873
0.000446271
0.000470647
0.000520958
0.000559807
0.00057195
0.000570174
0.000574417
0.00059312
0.00061916
0.000641444
0.000654676
0.000662237
0.00066984
0.000681034
0.000695008
0.000710008
0.000724925
0.000740722
0.000758324
0.000778284
0.000799706
0.000821633
0.000842898
0.000863076
0.000881748
0.000899044
0.000915074
0.000930465
0.000945734
0.000961605
0.000978477
0.000996866
0.00101705
0.00103938
0.00106372
0.0010896
0.00111594
0.00114164
0.00116564
0.00118763
0.00120774
0.00122679
0.00124558
0.00126508
0.00128591
0.0013087
0.00133373
0.0013612
0.00139072
0.00142171
0.00145301
0.00148367
0.00151269
0.0015399
0.00156545
0.00159024
0.00161515
0.0016413
0.00166922
0.00169943
0.00173172
0.00176602
0.00180168
0.0018383
0.00187505
0.00191153
0.0019471
0.00198179
0.0020156
0.00204923
0.00208325
0.00211866
0.00215592
0.00219562
0.00223763
0.00228186
0.00232759
0.00237435
0.00242131
0.00246809
0.00251424
0.00255996
0.0026055
0.00265178
0.00269956
0.00274985
0.00280304
0.0028594
0.00291844
0.00297966
0.00304214
0.00310539
0.00316896
0.00323309
0.00329816
0.00336507
0.00343448
0.00350725
0.00358362
0.00366386
0.00374765
0.00383475
0.00392451
0.00401656
0.00411029
0.0042055
0.00430169
0.00439873
0.00449609
0.00459354
0.00469035
0.00478607
0.0048798
0.00497103
0.00505929
2.51694e-07
3.51186e-05
0.000128883
0.000209941
0.000320338
0.000409635
0.000514588
0.000585435
0.000611185
0.000571496
0.000440049
0.000249523
-1.38778e-05
-0.00027975
-0.000526696
-0.000682712
-0.000709244
-0.00058435
-0.00031491
3.55713e-05
0.000394035
0.000652434
0.000727244
0.000586631
0.000257513
-0.00016118
-0.000537521
-0.000726768
-0.000648466
-0.000318761
0.000150308
0.000581918
0.00079556
0.000687231
0.000293868
-0.000213754
-0.000599911
-0.000676542
-0.000391449
0.000131706
0.000636217
0.000850825
0.000653079
0.000149395
-0.000379758
-0.00063104
-0.000450773
7.10591e-05
0.000632734
0.000882919
0.000655094
9.67858e-05
-0.000415438
-0.000531291
-0.00017202
0.000419131
0.000841952
0.000806811
0.000341103
-0.00021329
-0.000429545
-0.000128617
0.000458513
0.000858072
0.000751053
0.00025409
-0.000185668
-0.000193444
0.000204396
0.000633387
0.000732973
0.000474757
0.000144314
4.54749e-05
0.000230233
0.000497144
0.000613728
0.000525
0.000362938
0.000290827
0.000355298
0.000475142
0.00054363
0.000526439
0.000471255
0.000444324
0.000469512
0.000520839
0.000559857
0.000571331
0.000568552
0.000572263
0.000590948
0.00061728
0.000639674
0.000652811
0.00066009
0.000667594
0.000678851
0.000693109
0.000708326
0.000723403
0.000739152
0.000756674
0.000776464
0.000797766
0.000819492
0.000840561
0.000860465
0.00087893
0.000896062
0.000912066
0.000927453
0.000942743
0.000958547
0.000975341
0.000993636
0.00101382
0.00103617
0.00106054
0.00108634
0.00111247
0.00113781
0.00116144
0.00118309
0.00120301
0.00122193
0.00124068
0.0012601
0.00128084
0.00130348
0.00132835
0.00135562
0.00138494
0.00141566
0.00144672
0.00147711
0.00150595
0.00153299
0.00155844
0.00158308
0.0016078
0.00163358
0.00166099
0.00169047
0.00172201
0.00175551
0.00179052
0.00182658
0.00186302
0.00189929
0.00193481
0.00196944
0.00200315
0.00203647
0.00206997
0.00210453
0.00214075
0.00217921
0.00221995
0.00226291
0.00230751
0.00235321
0.00239921
0.00244501
0.00249016
0.00253479
0.00257919
0.00262419
0.00267056
0.00271917
0.00277042
0.0028245
0.00288101
0.00293943
0.00299896
0.0030591
0.00311949
0.00318026
0.00324176
0.00330465
0.00336948
0.00343679
0.00350673
0.0035793
0.00365412
0.00373075
0.00380856
0.0038871
0.00396583
0.00404446
0.00412263
0.00420012
0.00427656
0.00435169
0.00442507
0.00449635
0.00456508
0.00463111
0.00469415
-5.37948e-06
2.79037e-05
0.000123978
0.000210174
0.000327262
0.000422617
0.000530634
0.000603714
0.000627224
0.000583145
0.000443588
0.000244733
-2.90494e-05
-0.000301211
-0.000551796
-0.000703931
-0.000723716
-0.000587891
-0.000307524
5.24165e-05
0.000416042
0.000673562
0.000741403
0.00058913
0.000247101
-0.000181862
-0.000561373
-0.000745524
-0.00065496
-0.000310887
0.000169404
0.000603982
0.000811392
0.000689943
0.000282146
-0.000234968
-0.000620947
-0.000687789
-0.000387854
0.000148039
0.000656794
0.000864477
0.000652187
0.000134423
-0.000400748
-0.000646447
-0.000452009
8.44358e-05
0.000652274
0.00089606
0.000653106
8.09052e-05
-0.000435222
-0.000542222
-0.000167731
0.000435028
0.00085767
0.000810604
0.000329572
-0.000232274
-0.000442569
-0.000126611
0.000472807
0.000872404
0.000753257
0.000242655
-0.000201072
-0.000200504
0.000209972
0.000645235
0.000740218
0.000471619
0.000134363
3.71692e-05
0.00022899
0.000501379
0.000617461
0.000523719
0.000357203
0.000284787
0.00035243
0.000475587
0.000544827
0.000526034
0.000468969
0.000441703
0.000468003
0.000520632
0.000559904
0.000570543
0.000566537
0.000569481
0.000588023
0.000614555
0.000637062
0.00065011
0.000657224
0.000664697
0.000676113
0.00069064
0.00070609
0.000721286
0.000737026
0.000754461
0.000774093
0.00079518
0.000816598
0.000837311
0.000856839
0.000875031
0.000892008
0.000908018
0.000923445
0.000938771
0.000954506
0.000971203
0.000989383
0.00100955
0.0010319
0.00105627
0.00108191
0.00110773
0.0011326
0.00115576
0.001177
0.0011967
0.0012155
0.00123421
0.00125355
0.00127416
0.0012966
0.00132125
0.00134825
0.00137726
0.00140762
0.00143827
0.00146823
0.0014967
0.00152348
0.00154878
0.00157334
0.00159792
0.00162339
0.00165026
0.00167896
0.00170955
0.00174202
0.00177607
0.00181135
0.00184723
0.00188315
0.0019185
0.00195297
0.00198646
0.00201933
0.00205211
0.00208562
0.00212055
0.00215751
0.00219672
0.00223814
0.0022813
0.00232561
0.0023703
0.00241478
0.00245864
0.00250188
0.00254486
0.00258824
0.00263277
0.00267919
0.00272789
0.00277901
0.00283221
0.00288699
0.00294269
0.00299884
0.00305516
0.00311168
0.00316867
0.00322655
0.00328569
0.00334639
0.00340867
0.00347239
0.00353716
0.00360254
0.00366805
0.00373329
0.00379793
0.00386171
0.00392438
0.00398574
0.0040455
0.0041034
0.00415908
0.00421234
0.00426296
0.00431083
0.00435573
-1.23749e-05
2.00306e-05
0.000118718
0.000210598
0.000333998
0.00043594
0.000547991
0.000624482
0.00064615
0.000598484
0.000449706
0.000241127
-4.47221e-05
-0.000325588
-0.000581619
-0.000731165
-0.000742637
-0.000594586
-0.000300337
7.12939e-05
0.000442477
0.000699064
0.000759399
0.000593048
0.00023585
-0.00020554
-0.000589522
-0.000768551
-0.000663956
-0.000302606
0.00019149
0.00063048
0.000830688
0.000694051
0.000268753
-0.000260001
-0.00064627
-0.000701737
-0.000384272
0.000166835
0.000680881
0.000880828
0.000651644
0.000117191
-0.000425439
-0.000664606
-0.00045369
9.97632e-05
0.000674816
0.000911556
0.000651336
6.28258e-05
-0.000458076
-0.000555098
-0.000163215
0.000452792
0.00087515
0.000814544
0.000316654
-0.000253538
-0.000457267
-0.000124743
0.000488404
0.000887934
0.00075564
0.000230061
-0.000218237
-0.000208667
0.000215838
0.000658089
0.000748087
0.000468193
0.000123354
2.78382e-05
0.000227355
0.000505628
0.000620971
0.000521667
0.00035034
0.000277731
0.000349005
0.000475853
0.000545962
0.000525411
0.000466266
0.000438523
0.000465961
0.000519977
0.000559603
0.000569414
0.000564111
0.000566117
0.00058431
0.000610856
0.000633373
0.000646358
0.000653436
0.000661055
0.000672751
0.000687584
0.000703219
0.000718472
0.000734173
0.000751527
0.000771
0.000791804
0.000812785
0.00083297
0.000851996
0.000869839
0.00088668
0.000902728
0.000918259
0.000933644
0.00094934
0.000965936
0.000984018
0.00100413
0.00102644
0.00105069
0.00107604
0.0011014
0.00112568
0.00114827
0.00116908
0.00118853
0.00120724
0.00122591
0.00124516
0.00126562
0.00128781
0.00131216
0.00133879
0.00136739
0.00139722
0.00142727
0.00145659
0.0014845
0.00151086
0.00153594
0.00156039
0.00158489
0.00161012
0.00163651
0.00166441
0.00169393
0.00172517
0.00175799
0.00179219
0.00182723
0.00186258
0.00189753
0.00193167
0.00196472
0.00199693
0.00202876
0.002061
0.00209441
0.00212969
0.00216713
0.00220676
0.00224818
0.00229078
0.0023338
0.00237664
0.00241884
0.00246039
0.00250153
0.00254288
0.00258507
0.00262875
0.0026743
0.00272177
0.00277093
0.00282132
0.00287243
0.00292385
0.00297535
0.00302691
0.00307867
0.00313086
0.00318368
0.00323721
0.0032914
0.003346
0.00340071
0.00345519
0.00350912
0.00356227
0.00361444
0.00366548
0.00371525
0.00376355
0.00381012
0.0038547
0.00389704
0.00393696
0.0039743
0.00400894
0.00404077
-2.04244e-05
1.22189e-05
0.000113329
0.000210944
0.000340294
0.000449512
0.00056606
0.000646203
0.000666808
0.00061594
0.000458426
0.00023936
-5.91682e-05
-0.000351055
-0.000613564
-0.00076359
-0.000766718
-0.000605811
-0.000294902
9.1323e-05
0.000472475
0.000729575
0.000781436
0.000599647
0.000224755
-0.000231224
-0.000621715
-0.000796006
-0.000676488
-0.000295527
0.000215151
0.000660456
0.000854052
0.000700565
0.000254948
-0.000288006
-0.000675832
-0.00071914
-0.000381853
0.000187308
0.00070826
0.000900235
0.000652435
9.86846e-05
-0.000453252
-0.000686093
-0.000457023
0.000115971
0.000699922
0.000929294
0.000650281
4.30785e-05
-0.000483863
-0.000570586
-0.000159291
0.000472024
0.000895018
0.00082018
0.000303272
-0.0002771
-0.0004746
-0.000124296
0.000504356
0.000905112
0.000759479
0.000217295
-0.000237135
-0.000218876
0.000220728
0.000671387
0.000756957
0.000465099
0.000111548
1.70722e-05
0.000224505
0.000509373
0.000624436
0.000519406
0.000342702
0.000269494
0.000344454
0.000475445
0.000546897
0.000524786
0.000463407
0.000434871
0.000463216
0.000518574
0.00055865
0.000567737
0.000561187
0.000562174
0.000579855
0.0006062
0.000628568
0.000641423
0.000648531
0.000656446
0.000668594
0.000683831
0.00069965
0.00071489
0.000730462
0.000747673
0.000766928
0.000787381
0.000807801
0.000827322
0.000845714
0.000863148
0.000879837
0.000895962
0.000911631
0.000927121
0.000942819
0.000959362
0.000977363
0.000997385
0.00101954
0.00104349
0.00106834
0.00109304
0.0011166
0.00113858
0.00115896
0.00117819
0.00119683
0.00121548
0.00123465
0.00125491
0.0012768
0.00130076
0.00132691
0.00135492
0.00138404
0.00141328
0.00144175
0.00146888
0.00149465
0.00151939
0.0015437
0.00156813
0.00159318
0.00161912
0.00164621
0.00167458
0.00170445
0.00173584
0.00176868
0.0018026
0.00183705
0.00187131
0.00190479
0.00193712
0.00196838
0.001999
0.00202976
0.00206147
0.00209489
0.0021304
0.00216806
0.00220748
0.00224805
0.00228904
0.00232981
0.00236993
0.00240933
0.00244821
0.00248706
0.00252646
0.00256693
0.00260877
0.00265205
0.00269658
0.00274203
0.00278801
0.0028342
0.0028804
0.00292656
0.00297271
0.00301893
0.00306524
0.00311157
0.00315779
0.00320365
0.00324895
0.00329345
0.00333703
0.00337958
0.00342106
0.00346144
0.00350061
0.00353841
0.00357462
0.00360898
0.00364126
0.00367125
0.00369878
0.00372375
0.00374613
-2.9064e-05
4.6528e-06
0.000108209
0.000211231
0.00034623
0.000462805
0.000584114
0.000667988
0.000688324
0.000634412
0.000469424
0.000239632
-7.14878e-05
-0.000375954
-0.000646292
-0.000799004
-0.000795225
-0.000621578
-0.000292959
0.000110131
0.000503528
0.000763904
0.000807525
0.000609948
0.00021528
-0.000257783
-0.000657149
-0.000827716
-0.000693155
-0.000291012
0.000238854
0.000693328
0.00088158
0.000710628
0.000242438
-0.000317776
-0.000709377
-0.000740955
-0.000382106
0.000207984
0.000738356
0.000923352
0.000655826
8.02161e-05
-0.000483682
-0.000711615
-0.000463409
0.000131672
0.0007273
0.000950447
0.000651123
2.28081e-05
-0.000512539
-0.000589566
-0.000157184
0.000492048
0.000917535
0.000828143
0.000289941
-0.000303168
-0.000495487
-0.000126273
0.0005205
0.000924615
0.000765592
0.000204811
-0.000258045
-0.000231873
0.000224071
0.000685242
0.000767413
0.000462776
9.87724e-05
4.21736e-06
0.000219896
0.000512659
0.000628423
0.000517534
0.000334487
0.000259798
0.000338329
0.000474054
0.00054755
0.000524171
0.000460361
0.000430639
0.000459587
0.000516188
0.000556739
0.000565169
0.000557427
0.000557455
0.000574633
0.000600702
0.000622756
0.000635297
0.000642336
0.000650585
0.000663349
0.000679172
0.00069529
0.000710496
0.000725824
0.000742713
0.0007616
0.000781572
0.00080135
0.000820127
0.000837832
0.000854806
0.000871322
0.000887506
0.000903324
0.000918953
0.00093472
0.000951274
0.000969216
0.000989091
0.00101092
0.00103433
0.0010584
0.00108222
0.00110495
0.00112628
0.00114629
0.0011654
0.00118404
0.0012027
0.00122178
0.0012418
0.00126329
0.00128672
0.0013122
0.00133941
0.0013676
0.0013958
0.00142321
0.00144939
0.00147442
0.00149868
0.00152275
0.00154703
0.00157185
0.00159731
0.00162357
0.00165076
0.00167917
0.00170898
0.00174029
0.0017728
0.00180602
0.00183918
0.00187162
0.00190283
0.00193282
0.00196196
0.00199106
0.00202094
0.00205241
0.00208588
0.00212139
0.00215856
0.00219676
0.00223529
0.00227353
0.00231109
0.00234788
0.00238408
0.00242007
0.0024563
0.00249316
0.00253092
0.00256964
0.00260922
0.00264943
0.00269002
0.00273075
0.00277147
0.00281209
0.00285255
0.00289278
0.00293269
0.00297209
0.00301082
0.00304866
0.00308549
0.00312119
0.00315579
0.00318933
0.0032219
0.00325349
0.00328409
0.00331354
0.00334166
0.00336816
0.00339278
0.00341526
0.00343546
0.00345329
0.00346877
-3.79315e-05
-2.5222e-06
0.000103502
0.000211585
0.000352011
0.000475366
0.00060182
0.000689177
0.000709954
0.000653111
0.000481824
0.000241555
-8.15014e-05
-0.000399087
-0.00067843
-0.000835072
-0.000826607
-0.000641372
-0.000295591
0.000125745
0.000533072
0.000799225
0.000837419
0.000624554
0.000209171
-0.000283221
-0.000693607
-0.000862781
-0.000714314
-0.000290503
0.000260811
0.000727644
0.000913202
0.000724891
0.000232761
-0.000347731
-0.000746096
-0.000767438
-0.000386328
0.000227274
0.000770349
0.000950401
0.00066275
6.29366e-05
-0.000516129
-0.000741176
-0.000473791
0.000145654
0.000756279
0.00097534
0.000655413
3.04177e-06
-0.000544053
-0.000612944
-0.000158278
0.000511969
0.000942709
0.000839141
0.000277484
-0.000331454
-0.000520388
-0.000131345
0.000536402
0.000946362
0.000774136
0.000192658
-0.000281219
-0.000248013
0.000225699
0.000699732
0.00077964
0.000461315
8.48343e-05
-1.1102e-05
0.000213225
0.000515417
0.000633092
0.000516282
0.000325829
0.000248634
0.000330525
0.000471509
0.000547694
0.000523283
0.000456864
0.000425649
0.000455024
0.000512799
0.000553767
0.000561433
0.000552438
0.000551569
0.000568417
0.00059434
0.000616051
0.000628084
0.000634815
0.000643254
0.000656664
0.000673242
0.000689852
0.000705109
0.000720109
0.000736456
0.000754713
0.000774006
0.000793063
0.000811116
0.000828191
0.000844721
0.000861018
0.000877163
0.000893059
0.000908808
0.000924696
0.000941327
0.000959244
0.000978891
0.0010002
0.00102277
0.00104579
0.0010685
0.00109028
0.00111099
0.00113071
0.0011498
0.00116854
0.00118725
0.00120622
0.00122591
0.00124686
0.00126955
0.00129414
0.00132031
0.00134735
0.00137433
0.00140053
0.00142561
0.00144975
0.00147336
0.00149699
0.00152094
0.00154538
0.00157026
0.00159565
0.00162165
0.00164862
0.00167683
0.00170647
0.00173735
0.001769
0.00180064
0.00183155
0.0018612
0.00188956
0.00191698
0.00194426
0.00197224
0.00200171
0.00203303
0.00206621
0.00210084
0.00213631
0.00217195
0.00220722
0.00224178
0.00227558
0.00230874
0.00234155
0.00237432
0.00240736
0.00244086
0.0024749
0.00250946
0.00254441
0.00257962
0.00261493
0.00265023
0.00268537
0.00272024
0.00275465
0.00278843
0.00282134
0.00285322
0.00288388
0.00291329
0.00294145
0.00296853
0.00299461
0.00301989
0.0030444
0.00306817
0.00309102
0.00311278
0.00313311
0.00315177
0.00316847
0.00318312
0.00319561
0.00320602
-4.65205e-05
-9.23965e-06
9.92578e-05
0.000212017
0.000357663
0.00048701
0.000618694
0.000709406
0.000731013
0.000671543
0.000494668
0.000244774
-8.94971e-05
-0.000419696
-0.000708667
-0.000870089
-0.000859245
-0.000664118
-0.000302874
0.000136965
0.000559487
0.000833718
0.000869226
0.000643321
0.000207667
-0.000305238
-0.000729289
-0.000900175
-0.000739987
-0.000295016
0.000279003
0.000760868
0.000946688
0.000743421
0.000227277
-0.000375756
-0.000784242
-0.000798158
-0.000395661
0.000243068
0.000802165
0.000980219
0.000673555
4.77954e-05
-0.000549077
-0.000774161
-0.00048894
0.000156303
0.000785225
0.00100328
0.000663534
-1.49646e-05
-0.000577211
-0.000640517
-0.000163641
0.000530286
0.000969676
0.000853689
0.000267336
-0.000360696
-0.000548968
-0.000140224
0.000550857
0.000969498
0.000785006
0.000181331
-0.000306075
-0.000267164
0.00022513
0.000714064
0.000793093
0.000460643
6.99696e-05
-2.87864e-05
0.000204169
0.000517007
0.000637904
0.000515542
0.000317051
0.00023643
0.000321224
0.000467612
0.000546875
0.000521627
0.000452532
0.00041966
0.000449396
0.000508343
0.00054967
0.000556369
0.000545908
0.000544076
0.000560779
0.000586857
0.000608443
0.000619932
0.000626105
0.000634412
0.000648275
0.000665624
0.000682903
0.000698389
0.000713097
0.000728737
0.000746079
0.000764436
0.000782665
0.00080006
0.00081664
0.000832809
0.000848834
0.000864789
0.000880581
0.00089634
0.000912333
0.000929098
0.00094702
0.000966375
0.000986975
0.00100844
0.00103012
0.00105152
0.00107227
0.00109237
0.0011119
0.00113108
0.00114998
0.00116875
0.00118754
0.00120678
0.00122701
0.00124874
0.00127218
0.00129708
0.00132276
0.00134838
0.00137328
0.00139717
0.00142027
0.00144302
0.00146593
0.00148925
0.00151305
0.00153719
0.00156165
0.00158651
0.00161211
0.00163875
0.00166667
0.00169571
0.00172542
0.00175507
0.00178397
0.00181161
0.00183798
0.00186347
0.00188884
0.00191487
0.00194228
0.00197134
0.002002
0.00203382
0.00206622
0.00209861
0.00213054
0.00216177
0.00219226
0.00222211
0.0022515
0.00228067
0.0023098
0.00233905
0.0023685
0.0023982
0.00242811
0.00245819
0.00248833
0.00251843
0.00254832
0.00257781
0.00260668
0.0026347
0.00266164
0.00268735
0.00271173
0.00273482
0.00275672
0.00277763
0.00279773
0.00281722
0.00283613
0.00285446
0.00287204
0.00288866
0.00290403
0.00291791
0.00293008
0.00294045
0.00294899
0.00295577
-5.45322e-05
-1.54898e-05
9.55672e-05
0.00021249
0.000363121
0.00049772
0.000634259
0.00072837
0.000751011
0.000689266
0.000507338
0.000248905
-9.58856e-05
-0.00043763
-0.000736366
-0.000903227
-0.00089156
-0.000688512
-0.000313801
0.00014313
0.000581487
0.000865488
0.000901221
0.000664929
0.000211049
-0.000322551
-0.000762259
-0.000937912
-0.000769129
-0.000304938
0.000291774
0.00079073
0.000980572
0.000766083
0.000227279
-0.000399476
-0.000821558
-0.000832247
-0.000410819
0.000253191
0.000831372
0.00101172
0.000689373
3.84002e-05
-0.000579629
-0.000809287
-0.000509453
0.000161253
0.000811261
0.00103257
0.000675984
-2.8814e-05
-0.000609664
-0.000671445
-0.000174325
0.000544778
0.000996571
0.000871447
0.000260872
-0.000388885
-0.000580129
-0.000153574
0.000562023
0.000992466
0.000798164
0.00017214
-0.000331206
-0.000289133
0.000221155
0.000726589
0.000806924
0.000461172
5.52639e-05
-4.81312e-05
0.00019248
0.000516483
0.000642007
0.000515162
0.000308671
0.000223821
0.000310676
0.000462122
0.000544601
0.000518744
0.000447013
0.000412362
0.000442389
0.000502571
0.000544325
0.000549961
0.000537762
0.000534724
0.000551291
0.000577834
0.000599707
0.000610885
0.000616387
0.000624187
0.000638083
0.000655964
0.000673929
0.000689823
0.000704381
0.000719281
0.000735491
0.000752646
0.000769882
0.000786631
0.000802854
0.000818795
0.000834553
0.000850168
0.00086562
0.000881183
0.000897178
0.000914069
0.000932004
0.000951016
0.000970755
0.0009909
0.00101101
0.00103095
0.0010506
0.00107011
0.00108951
0.00110884
0.00112792
0.00114669
0.0011652
0.00118382
0.00120311
0.00122365
0.00124571
0.00126912
0.0012933
0.00131746
0.00134099
0.00136362
0.00138556
0.00140723
0.00142912
0.00145146
0.00147429
0.00149746
0.00152091
0.00154465
0.00156898
0.00159412
0.00162027
0.00164726
0.00167468
0.00170189
0.0017283
0.00175354
0.00177768
0.0018011
0.00182451
0.0018486
0.00187391
0.00190061
0.00192855
0.00195731
0.00198636
0.00201523
0.00204358
0.00207124
0.00209821
0.00212457
0.00215043
0.00217593
0.0022012
0.00222635
0.00225147
0.00227665
0.00230191
0.00232726
0.00235261
0.00237786
0.00240279
0.00242722
0.00245088
0.00247357
0.00249509
0.00251536
0.00253437
0.00255222
0.00256905
0.00258509
0.00260051
0.00261545
0.00262991
0.00264386
0.00265711
0.00266949
0.00268074
0.0026907
0.00269921
0.00270623
0.00271176
0.00271586
-6.17087e-05
-2.11868e-05
9.23777e-05
0.00021298
0.000368246
0.000507606
0.000648591
0.000745801
0.000769514
0.000705919
0.000519413
0.000253502
-0.000100963
-0.000453181
-0.000761228
-0.000933729
-0.00092243
-0.000713276
-0.000327139
0.000144862
0.000598355
0.000892838
0.000930679
0.000687285
0.000218322
-0.000334524
-0.00079076
-0.00097371
-0.000800019
-0.000319919
0.000298157
0.000815381
0.00101257
0.000790912
0.000233156
-0.000417088
-0.000855883
-0.000868065
-0.00043153
0.000256652
0.00085591
0.00104299
0.000709215
3.46014e-05
-0.000606485
-0.000845192
-0.00053496
0.000159522
0.000832524
0.00106164
0.000692499
-3.71715e-05
-0.000639188
-0.000704232
-0.000190714
0.000553193
0.00102083
0.000891296
0.000259076
-0.000413881
-0.000612432
-0.000171882
0.000567873
0.00101334
0.00081325
0.000166327
-0.000355114
-0.000313652
0.000212494
0.000735503
0.000820201
0.000463386
4.19554e-05
-6.82821e-05
0.000177998
0.000512935
0.000644507
0.000514811
0.000300902
0.000211176
0.000299026
0.000454904
0.000540624
0.000514423
0.000440098
0.000403448
0.000433564
0.000495055
0.000537495
0.000542219
0.000528112
0.000523503
0.000539671
0.000566778
0.00058933
0.000600617
0.000605576
0.000612619
0.000626055
0.000644015
0.000662435
0.000678769
0.00069333
0.0007076
0.000722629