/*--------------------------------*- C++ -*----------------------------------*\
| =========                 |                                                 |
| \\      /  F ield         | OpenFOAM: The Open Source CFD Toolbox           |
|  \\    /   O peration     | Version:  v1912                                 |
|   \\  /    A nd           | Website:  www.openfoam.com                      |
|    \\/     M anipulation  |                                                 |
\*---------------------------------------------------------------------------*/
FoamFile
{
    version     2.0;
    format      ascii;
    class       surfaceScalarField;
    location    "0.1";
    object      phi;
}
// * * * * * * * * * * * * * * * * * * * * * * * * * * * * * * * * * * * * * //

dimensions      [0 3 -1 0 0 0 0];
oriented        oriented;


internalField   nonuniform List<scalar> 
23660
(
3.87646e-06
-1.06697e-10
3.87654e-06
-2.60366e-10
3.87664e-06
-3.86613e-11
3.87662e-06
-6.5207e-10
3.87658e-06
3.85714e-10
3.87643e-06
-7.34919e-10
3.87636e-06
6.75456e-10
3.87624e-06
-8.9755e-10
3.87622e-06
8.34581e-10
3.8762e-06
-9.7502e-10
3.87625e-06
8.23395e-10
3.87631e-06
-1.00543e-09
3.87642e-06
7.32364e-10
3.87652e-06
-9.42643e-10
3.87662e-06
7.22408e-10
3.87664e-06
-8.07507e-10
3.87665e-06
7.64859e-10
3.87661e-06
-7.12041e-10
3.87657e-06
8.48643e-10
3.8765e-06
-6.38545e-10
3.87644e-06
8.39711e-10
3.87638e-06
-6.77456e-10
3.87637e-06
7.39635e-10
3.87639e-06
-7.78573e-10
3.87642e-06
6.05682e-10
3.87648e-06
-8.16314e-10
3.87649e-06
5.91331e-10
3.87648e-06
-7.35926e-10
3.87644e-06
6.73716e-10
3.87639e-06
-6.20023e-10
3.87633e-06
7.07613e-10
3.87629e-06
-6.26317e-10
3.87626e-06
6.46823e-10
3.87627e-06
-7.18338e-10
3.87627e-06
5.53955e-10
3.87629e-06
-7.3916e-10
3.87627e-06
5.83372e-10
3.87626e-06
-6.44785e-10
3.8762e-06
6.77136e-10
3.87617e-06
-5.60202e-10
3.87611e-06
6.67055e-10
3.87609e-06
-5.90748e-10
3.87606e-06
5.67298e-10
3.87608e-06
-6.5102e-10
3.87606e-06
5.47778e-10
3.87607e-06
-5.90803e-10
3.87601e-06
6.31168e-10
3.87598e-06
-5.08541e-10
3.8759e-06
6.28838e-10
3.87589e-06
-5.4727e-10
3.87586e-06
5.25522e-10
3.87588e-06
-5.94041e-10
3.87585e-06
5.21383e-10
3.87586e-06
-5.11003e-10
3.87579e-06
6.00958e-10
3.87576e-06
-4.52792e-10
3.87569e-06
5.74507e-10
3.87569e-06
-5.03214e-10
3.87565e-06
5.07408e-10
3.87566e-06
-4.968e-10
3.8756e-06
5.57691e-10
3.87559e-06
-4.15979e-10
3.8755e-06
5.87629e-10
3.87548e-06
-4.27487e-10
3.87542e-06
5.23501e-10
3.87542e-06
-4.6425e-10
3.87537e-06
5.25656e-10
3.87536e-06
-4.12944e-10
3.87529e-06
5.63246e-10
3.87527e-06
-3.99837e-10
3.8752e-06
5.23288e-10
3.87521e-06
-4.28039e-10
3.87515e-06
5.05786e-10
3.87515e-06
-3.97573e-10
3.87508e-06
5.32351e-10
3.87506e-06
-3.68262e-10
3.87498e-06
5.22261e-10
3.87496e-06
-3.67621e-10
3.87489e-06
5.09371e-10
3.87488e-06
-3.48045e-10
3.87479e-06
5.1694e-10
3.87477e-06
-3.25998e-10
3.87468e-06
5.12461e-10
3.87467e-06
-3.18866e-10
3.87459e-06
5.01674e-10
3.87459e-06
-3.10619e-10
3.87451e-06
4.98118e-10
3.8745e-06
-3.0004e-10
3.87442e-06
4.98521e-10
3.8744e-06
-2.92222e-10
3.87431e-06
5.00138e-10
3.8743e-06
-2.82032e-10
3.8742e-06
5.05132e-10
3.87418e-06
-2.72011e-10
3.87409e-06
5.07858e-10
3.87407e-06
-2.64864e-10
3.87397e-06
5.08444e-10
3.87395e-06
-2.57713e-10
3.87385e-06
5.1037e-10
3.87383e-06
-2.49546e-10
3.87373e-06
5.11607e-10
3.87371e-06
-2.42607e-10
3.87361e-06
5.1028e-10
3.87359e-06
-2.3619e-10
3.87349e-06
5.07813e-10
3.87346e-06
-2.2954e-10
3.87336e-06
5.04439e-10
3.87333e-06
-2.22989e-10
3.87322e-06
4.99809e-10
3.8732e-06
-2.16435e-10
3.87309e-06
4.95028e-10
3.87306e-06
-2.09498e-10
3.87294e-06
4.90466e-10
3.87291e-06
-2.02682e-10
3.87279e-06
4.85954e-10
3.87276e-06
-1.96388e-10
3.87264e-06
4.81541e-10
3.8726e-06
-1.90624e-10
3.87248e-06
4.76978e-10
3.87244e-06
-1.8592e-10
3.87232e-06
4.7183e-10
3.87228e-06
-1.82112e-10
3.87216e-06
4.67706e-10
3.87211e-06
-1.77487e-10
3.87198e-06
4.67119e-10
3.87193e-06
-1.7115e-10
3.8718e-06
4.69345e-10
3.87175e-06
-1.64293e-10
3.8716e-06
4.71784e-10
3.87155e-06
-1.58394e-10
3.8714e-06
4.72832e-10
3.87135e-06
-1.53876e-10
3.8712e-06
4.72584e-10
3.87115e-06
-1.50146e-10
3.871e-06
4.73327e-10
3.87095e-06
-1.45602e-10
3.87079e-06
4.77011e-10
3.87073e-06
-1.40306e-10
3.87057e-06
4.81941e-10
3.87051e-06
-1.3435e-10
3.87035e-06
4.86927e-10
3.87028e-06
-1.28057e-10
3.87011e-06
4.92298e-10
3.87004e-06
-1.21131e-10
3.86986e-06
4.9822e-10
3.86978e-06
-1.13254e-10
3.8696e-06
5.05481e-10
3.86952e-06
-1.04063e-10
3.86933e-06
5.1444e-10
3.86925e-06
-9.38327e-11
3.86906e-06
5.24353e-10
3.86897e-06
-8.32387e-11
3.86877e-06
5.34455e-10
3.86869e-06
-7.25562e-11
3.86848e-06
5.44914e-10
3.86839e-06
-6.13499e-11
3.86817e-06
5.56868e-10
3.86808e-06
-4.87092e-11
3.86786e-06
5.716e-10
3.86776e-06
-3.39895e-11
3.86752e-06
5.89658e-10
3.86742e-06
-1.73894e-11
3.86717e-06
6.11205e-10
3.86707e-06
-1.3755e-13
3.86681e-06
6.33071e-10
3.86669e-06
2.77775e-11
3.86642e-06
6.54176e-10
3.8663e-06
5.29269e-11
3.86602e-06
6.77334e-10
3.86589e-06
7.87182e-11
3.86559e-06
7.02629e-10
3.86546e-06
1.06039e-10
3.86515e-06
7.3043e-10
3.86501e-06
1.35657e-10
3.86468e-06
7.60518e-10
3.86452e-06
1.67116e-10
3.86418e-06
7.92363e-10
3.864e-06
1.9988e-10
3.86364e-06
8.26535e-10
3.86345e-06
2.34975e-10
3.86306e-06
8.63797e-10
3.86285e-06
2.72883e-10
3.86244e-06
9.04841e-10
3.8622e-06
3.14712e-10
3.86176e-06
9.51063e-10
3.86149e-06
3.62293e-10
3.86102e-06
1.00469e-09
3.86072e-06
4.18397e-10
3.86021e-06
1.06919e-09
3.85986e-06
4.87503e-10
3.85929e-06
1.15167e-09
3.85888e-06
5.80853e-10
3.85821e-06
1.27442e-09
3.85769e-06
7.29894e-10
3.85684e-06
1.48828e-09
3.85611e-06
9.95409e-10
3.85495e-06
1.86917e-09
3.85384e-06
1.47014e-09
3.85215e-06
2.52242e-09
1.9288e-09
3.85088e-06
4.18581e-06
-5.64547e-11
4.18566e-06
-1.13483e-10
4.18539e-06
2.36956e-10
4.18512e-06
-3.88355e-10
4.18504e-06
4.6436e-10
4.18498e-06
-6.72058e-10
4.18508e-06
5.75295e-10
4.18521e-06
-1.02338e-09
4.18549e-06
5.52205e-10
4.18572e-06
-1.20523e-09
4.18607e-06
4.69584e-10
4.18625e-06
-1.17785e-09
4.18649e-06
4.84322e-10
4.18649e-06
-9.40363e-10
4.18655e-06
6.68179e-10
4.18633e-06
-5.87224e-10
4.1862e-06
8.87725e-10
4.1859e-06
-4.113e-10
4.18581e-06
9.40451e-10
4.18561e-06
-4.42482e-10
4.18571e-06
7.47233e-10
4.18572e-06
-6.90969e-10
4.18596e-06
4.98217e-10
4.18604e-06
-8.54053e-10
4.18624e-06
4.04847e-10
4.18618e-06
-7.54849e-10
4.18619e-06
5.7472e-10
4.18596e-06
-5.05182e-10
4.18588e-06
7.55427e-10
4.18567e-06
-4.0545e-10
4.18569e-06
6.84292e-10
4.18563e-06
-5.70779e-10
4.18581e-06
4.75951e-10
4.18583e-06
-7.38854e-10
4.18597e-06
4.13218e-10
4.18587e-06
-6.46252e-10
4.18586e-06
5.9545e-10
4.18566e-06
-4.40548e-10
4.18562e-06
7.18486e-10
4.18547e-06
-4.19099e-10
4.18556e-06
5.84131e-10
4.18556e-06
-5.89385e-10
4.18569e-06
4.3258e-10
4.18565e-06
-6.08467e-10
4.18566e-06
5.35025e-10
4.18549e-06
-4.22463e-10
4.18545e-06
6.74338e-10
4.18531e-06
-3.73272e-10
4.18538e-06
5.66933e-10
4.18536e-06
-5.27663e-10
4.18546e-06
4.24258e-10
4.18539e-06
-5.30563e-10
4.18539e-06
5.30135e-10
4.18523e-06
-3.5601e-10
4.1852e-06
6.29455e-10
4.1851e-06
-3.52214e-10
4.18517e-06
5.08321e-10
4.18514e-06
-4.70959e-10
4.18519e-06
4.50939e-10
4.18509e-06
-3.94878e-10
4.18507e-06
5.82844e-10
4.18493e-06
-2.80284e-10
4.18494e-06
5.74514e-10
4.18488e-06
-3.68146e-10
4.18494e-06
4.65749e-10
4.18487e-06
-3.93158e-10
4.18486e-06
5.31432e-10
4.18474e-06
-2.86057e-10
4.18473e-06
5.75345e-10
4.18464e-06
-3.12347e-10
4.18467e-06
4.93041e-10
4.1846e-06
-3.56361e-10
4.1846e-06
5.00531e-10
4.18449e-06
-2.9012e-10
4.18448e-06
5.41851e-10
4.18439e-06
-2.73133e-10
4.1844e-06
5.08098e-10
4.18432e-06
-2.86968e-10
4.18433e-06
5.03976e-10
4.18423e-06
-2.49339e-10
4.18422e-06
5.26473e-10
4.18412e-06
-2.26129e-10
4.18412e-06
5.15881e-10
4.18402e-06
-2.25131e-10
4.18402e-06
5.0904e-10
4.18392e-06
-2.10672e-10
4.1839e-06
5.13407e-10
4.1838e-06
-2.00767e-10
4.18379e-06
5.10264e-10
4.18369e-06
-1.96288e-10
4.18368e-06
5.11848e-10
4.18359e-06
-1.85668e-10
4.18357e-06
5.19144e-10
4.18347e-06
-1.74949e-10
4.18346e-06
5.24907e-10
4.18336e-06
-1.66282e-10
4.18334e-06
5.3133e-10
4.18323e-06
-1.55351e-10
4.1832e-06
5.38848e-10
4.1831e-06
-1.4528e-10
4.18307e-06
5.42099e-10
4.18297e-06
-1.37994e-10
4.18293e-06
5.40947e-10
4.18283e-06
-1.32582e-10
4.1828e-06
5.38692e-10
4.1827e-06
-1.2563e-10
4.18266e-06
5.36282e-10
4.18256e-06
-1.16415e-10
4.18252e-06
5.35511e-10
4.18241e-06
-1.06524e-10
4.18237e-06
5.35241e-10
4.18226e-06
-9.61355e-11
4.18222e-06
5.33385e-10
4.1821e-06
-8.66902e-11
4.18206e-06
5.30659e-10
4.18194e-06
-7.82795e-11
4.18189e-06
5.28298e-10
4.18177e-06
-7.03346e-11
4.18172e-06
5.26389e-10
4.1816e-06
-6.31139e-11
4.18155e-06
5.24617e-10
4.18142e-06
-5.68969e-11
4.18136e-06
5.23781e-10
4.18124e-06
-4.96962e-11
4.18118e-06
5.26212e-10
4.18105e-06
-4.0242e-11
4.18098e-06
5.3287e-10
4.18085e-06
-3.06176e-11
4.18078e-06
5.39196e-10
4.18064e-06
-2.08138e-11
4.18057e-06
5.43861e-10
4.18043e-06
-1.22041e-11
4.18036e-06
5.48274e-10
4.18021e-06
-3.97217e-12
4.18013e-06
5.51855e-10
4.17998e-06
4.18154e-12
4.1799e-06
5.56225e-10
4.17975e-06
1.15766e-11
4.17967e-06
5.641e-10
4.17951e-06
1.98829e-11
4.17942e-06
5.76912e-10
4.17927e-06
2.955e-11
4.17917e-06
5.91068e-10
4.179e-06
4.16225e-11
4.1789e-06
6.02256e-10
4.17873e-06
5.57298e-11
4.17862e-06
6.12218e-10
4.17845e-06
7.01549e-11
4.17834e-06
6.24616e-10
4.17816e-06
8.59828e-11
4.17805e-06
6.38133e-10
4.17786e-06
1.02376e-10
4.17774e-06
6.52781e-10
4.17755e-06
1.18953e-10
4.17743e-06
6.68674e-10
4.17723e-06
1.36561e-10
4.1771e-06
6.86624e-10
4.17689e-06
1.56845e-10
4.17676e-06
7.07269e-10
4.17654e-06
1.80763e-10
4.1764e-06
7.31082e-10
4.17618e-06
2.08137e-10
4.17603e-06
7.58107e-10
4.17579e-06
2.37463e-10
4.17564e-06
7.88533e-10
4.17539e-06
2.71019e-10
4.17523e-06
8.20669e-10
4.17498e-06
3.05017e-10
4.1748e-06
8.54859e-10
4.17454e-06
3.41131e-10
4.17435e-06
8.92152e-10
4.17407e-06
3.8011e-10
4.17387e-06
9.32657e-10
4.17358e-06
4.22313e-10
4.17337e-06
9.76732e-10
4.17306e-06
4.68731e-10
4.17283e-06
1.02524e-09
4.17251e-06
5.19618e-10
4.17226e-06
1.07922e-09
4.17192e-06
5.75586e-10
4.17164e-06
1.13948e-09
4.17128e-06
6.37667e-10
4.17098e-06
1.20756e-09
4.17058e-06
7.0787e-10
4.17025e-06
1.28529e-09
4.16982e-06
7.89027e-10
4.16945e-06
1.37603e-09
4.16898e-06
8.88435e-10
4.16855e-06
1.49666e-09
4.16801e-06
1.02691e-09
4.1675e-06
1.66686e-09
4.16686e-06
1.21753e-09
4.16623e-06
1.90114e-09
4.16548e-06
1.48075e-09
4.16475e-06
2.21873e-09
4.16391e-06
1.83878e-09
4.16314e-06
2.63609e-09
4.16231e-06
2.30321e-09
4.1617e-06
3.1338e-09
2.78358e-09
4.16084e-06
4.51997e-06
3.48482e-11
4.51996e-06
-9.99544e-11
4.51975e-06
4.42203e-10
4.51959e-06
-2.26531e-10
4.51942e-06
6.3913e-10
4.51934e-06
-5.97893e-10
4.5194e-06
5.16072e-10
4.51951e-06
-1.12944e-09
4.51977e-06
2.93723e-10
4.5199e-06
-1.33607e-09
4.52026e-06
1.0751e-10
4.52035e-06
-1.27026e-09
4.52065e-06
1.85532e-10
4.52058e-06
-8.73238e-10
4.52069e-06
5.64372e-10
4.52045e-06
-3.51475e-10
4.52045e-06
8.83559e-10
4.52012e-06
-7.50044e-11
4.52014e-06
9.21304e-10
4.51987e-06
-1.77031e-10
4.52003e-06
5.92337e-10
4.51991e-06
-5.7668e-10
4.52021e-06
1.96529e-10
4.52015e-06
-7.9309e-10
4.52044e-06
1.20751e-10
4.52028e-06
-5.9614e-10
4.52042e-06
4.35921e-10
4.52011e-06
-1.99934e-10
4.52017e-06
6.98767e-10
4.51986e-06
-9.93769e-11
4.51999e-06
5.57211e-10
4.51981e-06
-3.87119e-10
4.52006e-06
2.25916e-10
4.51994e-06
-6.22844e-10
4.52018e-06
1.72993e-10
4.51999e-06
-4.54257e-10
4.5201e-06
4.83768e-10
4.5198e-06
-1.42742e-10
4.51989e-06
6.35065e-10
4.51964e-06
-1.68932e-10
4.51982e-06
4.04102e-10
4.51968e-06
-4.58818e-10
4.51991e-06
2.09144e-10
4.51974e-06
-4.41305e-10
4.51987e-06
4.07655e-10
4.51961e-06
-1.62676e-10
4.51969e-06
5.8891e-10
4.51945e-06
-1.33108e-10
4.51961e-06
4.06046e-10
4.51947e-06
-3.81353e-10
4.51966e-06
2.31875e-10
4.51948e-06
-3.52228e-10
4.51959e-06
4.2387e-10
4.51934e-06
-1.04485e-10
4.51943e-06
5.38779e-10
4.51921e-06
-1.39085e-10
4.51938e-06
3.45807e-10
4.51923e-06
-3.19411e-10
4.51938e-06
2.9635e-10
4.51918e-06
-1.9306e-10
4.51926e-06
4.9658e-10
4.51902e-06
-3.88858e-11
4.51913e-06
4.64846e-10
4.51896e-06
-1.90491e-10
4.5191e-06
3.16916e-10
4.51893e-06
-2.16467e-10
4.51903e-06
4.26448e-10
4.51881e-06
-6.04321e-11
4.5189e-06
4.8177e-10
4.5187e-06
-1.13659e-10
4.51883e-06
3.68057e-10
4.51865e-06
-1.77783e-10
4.51876e-06
3.93542e-10
4.51855e-06
-8.24759e-11
4.51864e-06
4.50108e-10
4.51844e-06
-7.25348e-11
4.51854e-06
4.02913e-10
4.51836e-06
-9.98849e-11
4.51845e-06
4.05912e-10
4.51826e-06
-4.94078e-11
4.51834e-06
4.40243e-10
4.51814e-06
-2.50536e-11
4.51823e-06
4.25914e-10
4.51804e-06
-3.02204e-11
4.51812e-06
4.23834e-10
4.51792e-06
-1.21862e-11
4.518e-06
4.35586e-10
4.5178e-06
-1.9905e-12
4.51788e-06
4.30679e-10
4.51769e-06
-1.20575e-12
4.51777e-06
4.30776e-10
4.51757e-06
1.09321e-11
4.51765e-06
4.42268e-10
4.51745e-06
2.37449e-11
4.51752e-06
4.5181e-10
4.51732e-06
3.42772e-11
4.51739e-06
4.629e-10
4.51719e-06
4.76721e-11
4.51725e-06
4.74424e-10
4.51705e-06
5.99406e-11
4.51711e-06
4.79881e-10
4.5169e-06
6.76935e-11
4.51696e-06
4.78077e-10
4.51676e-06
7.48736e-11
4.51682e-06
4.76808e-10
4.51661e-06
8.26838e-11
4.51667e-06
4.77069e-10
4.51646e-06
9.13804e-11
4.51652e-06
4.81678e-10
4.51631e-06
1.02418e-10
4.51636e-06
4.86625e-10
4.51614e-06
1.15769e-10
4.51619e-06
4.90154e-10
4.51597e-06
1.2759e-10
4.51601e-06
4.91498e-10
4.5158e-06
1.37511e-10
4.51583e-06
4.9072e-10
4.51562e-06
1.46776e-10
4.51565e-06
4.90608e-10
4.51543e-06
1.55402e-10
4.51547e-06
4.91928e-10
4.51525e-06
1.63655e-10
4.51527e-06
4.98066e-10
4.51505e-06
1.73907e-10
4.51507e-06
5.06384e-10
4.51484e-06
1.86213e-10
4.51486e-06
5.15322e-10
4.51463e-06
1.99328e-10
4.51464e-06
5.25372e-10
4.51441e-06
2.12012e-10
4.51442e-06
5.34723e-10
4.51418e-06
2.23824e-10
4.51419e-06
5.44304e-10
4.51395e-06
2.3516e-10
4.51395e-06
5.5284e-10
4.51371e-06
2.45671e-10
4.5137e-06
5.614e-10
4.51346e-06
2.56027e-10
4.51345e-06
5.72397e-10
4.5132e-06
2.68151e-10
4.51319e-06
5.89342e-10
4.51293e-06
2.84985e-10
4.51292e-06
6.06765e-10
4.51265e-06
3.0302e-10
4.51263e-06
6.24205e-10
4.51237e-06
3.216e-10
4.51234e-06
6.42124e-10
4.51207e-06
3.40783e-10
4.51203e-06
6.59847e-10
4.51176e-06
3.60676e-10
4.51172e-06
6.78378e-10
4.51144e-06
3.82124e-10
4.51139e-06
6.98695e-10
4.51111e-06
4.04016e-10
4.51105e-06
7.20995e-10
4.51076e-06
4.27794e-10
4.5107e-06
7.45539e-10
4.5104e-06
4.55505e-10
4.51034e-06
7.73502e-10
4.51003e-06
4.87804e-10
4.50996e-06
8.06281e-10
4.50964e-06
5.24103e-10
4.50956e-06
8.41805e-10
4.50923e-06
5.62804e-10
4.50914e-06
8.80095e-10
4.50881e-06
6.04581e-10
4.5087e-06
9.21535e-10
4.50836e-06
6.49549e-10
4.50825e-06
9.65758e-10
4.50789e-06
6.98109e-10
4.50777e-06
1.01406e-09
4.5074e-06
7.50032e-10
4.50727e-06
1.06613e-09
4.50688e-06
8.0626e-10
4.50674e-06
1.12399e-09
4.50634e-06
8.69081e-10
4.50617e-06
1.18944e-09
4.50575e-06
9.3999e-10
4.50557e-06
1.2633e-09
4.50512e-06
1.01914e-09
4.50492e-06
1.34574e-09
4.50445e-06
1.10701e-09
4.50422e-06
1.43863e-09
4.50372e-06
1.2074e-09
4.50345e-06
1.54797e-09
4.50291e-06
1.32852e-09
4.50261e-06
1.68444e-09
4.50201e-06
1.48213e-09
4.50165e-06
1.85975e-09
4.501e-06
1.67818e-09
4.50058e-06
2.08183e-09
4.49988e-06
1.92429e-09
4.49942e-06
2.35759e-09
4.49867e-06
2.22812e-09
4.4982e-06
2.69367e-09
4.49744e-06
2.59507e-09
4.49699e-06
3.0896e-09
4.49628e-06
3.01011e-09
4.49598e-06
3.43268e-09
3.49032e-09
4.49528e-06
4.88087e-06
1.11201e-10
4.88086e-06
-8.75792e-11
4.88074e-06
5.58132e-10
4.88063e-06
-1.14059e-10
4.88056e-06
7.12746e-10
4.88044e-06
-4.82026e-10
4.88049e-06
4.64076e-10
4.88043e-06
-1.06973e-09
4.88069e-06
4.02885e-11
4.88073e-06
-1.3839e-09
4.88108e-06
-2.39429e-10
4.88111e-06
-1.30086e-09
4.88144e-06
-1.38593e-10
4.88134e-06
-7.78008e-10
4.88153e-06
3.73316e-10
4.88128e-06
-9.6832e-11
4.88136e-06
8.01298e-10
4.88102e-06
2.64222e-10
4.8811e-06
8.41458e-10
4.88081e-06
1.12537e-10
4.88097e-06
4.28891e-10
4.88081e-06
-4.09325e-10
4.88108e-06
-7.69639e-11
4.88098e-06
-6.90974e-10
4.88126e-06
-1.58266e-10
4.8811e-06
-4.4225e-10
4.88126e-06
2.83156e-10
4.88099e-06
6.81299e-11
4.88106e-06
6.26878e-10
4.88077e-06
1.88232e-10
4.88088e-06
4.52465e-10
4.8807e-06
-2.11483e-10
4.88091e-06
1.94455e-11
4.88079e-06
-5.06475e-10
4.881e-06
-3.38232e-11
4.88083e-06
-2.82186e-10
4.88093e-06
3.79333e-10
4.88068e-06
1.06387e-10
4.88075e-06
5.62295e-10
4.88053e-06
5.16313e-11
4.88067e-06
2.67844e-10
4.88053e-06
-3.19814e-10
4.88071e-06
3.2579e-11
4.88057e-06
-3.00256e-10
4.88068e-06
2.94714e-10
4.88047e-06
5.01543e-11
4.88053e-06
5.21028e-10
4.88032e-06
7.83459e-11
4.88044e-06
2.93161e-10
4.88029e-06
-2.39807e-10
4.88044e-06
8.32699e-11
4.88029e-06
-2.04051e-10
4.88039e-06
3.32617e-10
4.88018e-06
1.02168e-10
4.88025e-06
4.71743e-10
4.88006e-06
4.65703e-11
4.88018e-06
2.30637e-10
4.88004e-06
-1.84552e-10
4.88015e-06
1.8472e-10
4.87998e-06
-2.37948e-11
4.88004e-06
4.36199e-10
4.87984e-06
1.62419e-10
4.87991e-06
3.97533e-10
4.87976e-06
-3.73129e-11
4.87986e-06
2.13532e-10
4.87971e-06
-6.86582e-11
4.87979e-06
3.53589e-10
4.8796e-06
1.26435e-10
4.87965e-06
4.25935e-10
4.87949e-06
5.414e-11
4.87957e-06
2.87489e-10
4.87942e-06
-3.15296e-11
4.87949e-06
3.22816e-10
4.87932e-06
8.82679e-11
4.87937e-06
3.96883e-10
4.87921e-06
9.5494e-11
4.87927e-06
3.41648e-10
4.87911e-06
5.71013e-11
4.87917e-06
3.48835e-10
4.879e-06
1.17254e-10
4.87904e-06
3.9613e-10
4.87888e-06
1.42916e-10
4.87892e-06
3.8212e-10
4.87876e-06
1.31518e-10
4.8788e-06
3.80663e-10
4.87864e-06
1.50701e-10
4.87868e-06
3.9738e-10
4.87852e-06
1.60121e-10
4.87855e-06
3.9338e-10
4.87839e-06
1.58203e-10
4.87843e-06
3.9665e-10
4.87827e-06
1.71022e-10
4.8783e-06
4.12784e-10
4.87813e-06
1.86445e-10
4.87816e-06
4.27019e-10
4.87799e-06
1.99921e-10
4.87801e-06
4.41956e-10
4.87785e-06
2.15544e-10
4.87787e-06
4.55122e-10
4.8777e-06
2.27257e-10
4.87772e-06
4.61377e-10
4.87755e-06
2.35218e-10
4.87756e-06
4.64815e-10
4.87739e-06
2.42743e-10
4.8774e-06
4.68513e-10
4.87723e-06
2.50889e-10
4.87724e-06
4.72404e-10
4.87707e-06
2.60827e-10
4.87707e-06
4.78433e-10
4.8769e-06
2.74342e-10
4.8769e-06
4.86656e-10
4.87673e-06
2.89734e-10
4.87672e-06
4.95264e-10
4.87655e-06
3.0373e-10
4.87654e-06
5.0202e-10
4.87636e-06
3.15615e-10
4.87634e-06
5.06456e-10
4.87616e-06
3.25207e-10
4.87614e-06
5.10003e-10
4.87596e-06
3.34526e-10
4.87594e-06
5.15186e-10
4.87576e-06
3.44412e-10
4.87573e-06
5.23859e-10
4.87555e-06
3.57643e-10
4.87552e-06
5.37144e-10
4.87533e-06
3.74018e-10
4.8753e-06
5.52013e-10
4.8751e-06
3.90137e-10
4.87506e-06
5.66925e-10
4.87487e-06
4.0573e-10
4.87482e-06
5.8186e-10
4.87463e-06
4.20694e-10
4.87457e-06
5.95491e-10
4.87438e-06
4.34225e-10
4.87432e-06
6.08638e-10
4.87412e-06
4.47613e-10
4.87406e-06
6.23072e-10
4.87385e-06
4.62423e-10
4.87378e-06
6.39436e-10
4.87357e-06
4.79218e-10
4.8735e-06
6.59408e-10
4.87329e-06
5.00076e-10
4.87321e-06
6.8175e-10
4.87299e-06
5.21945e-10
4.87291e-06
7.04647e-10
4.87269e-06
5.45569e-10
4.8726e-06
7.29343e-10
4.87237e-06
5.71301e-10
4.87228e-06
7.54087e-10
4.87204e-06
5.96611e-10
4.87194e-06
7.78734e-10
4.8717e-06
6.22913e-10
4.87159e-06
8.05442e-10
4.87135e-06
6.51201e-10
4.87123e-06
8.34369e-10
4.87098e-06
6.82338e-10
4.87086e-06
8.66145e-10
4.87059e-06
7.17068e-10
4.87047e-06
9.0215e-10
4.8702e-06
7.56726e-10
4.87006e-06
9.42835e-10
4.86978e-06
8.00852e-10
4.86964e-06
9.87188e-10
4.86935e-06
8.48442e-10
4.8692e-06
1.03501e-09
4.8689e-06
8.99722e-10
4.86874e-06
1.08685e-09
4.86843e-06
9.54841e-10
4.86826e-06
1.14234e-09
4.86794e-06
1.01342e-09
4.86775e-06
1.20156e-09
4.86743e-06
1.0767e-09
4.86723e-06
1.2669e-09
4.86688e-06
1.14735e-09
4.86667e-06
1.34081e-09
4.86631e-06
1.2273e-09
4.86607e-06
1.42466e-09
4.8657e-06
1.31709e-09
4.86544e-06
1.51848e-09
4.86504e-06
1.41682e-09
4.86477e-06
1.6232e-09
4.86434e-06
1.52888e-09
4.86404e-06
1.74301e-09
4.86359e-06
1.65894e-09
4.86325e-06
1.88474e-09
4.86277e-06
1.81434e-09
4.8624e-06
2.0555e-09
4.86188e-06
2.00146e-09
4.86148e-06
2.26055e-09
4.86093e-06
2.22483e-09
4.86051e-06
2.50359e-09
4.85994e-06
2.48768e-09
4.85951e-06
2.78701e-09
4.85895e-06
2.79159e-09
4.85853e-06
3.11077e-09
4.85799e-06
3.13355e-09
4.85762e-06
3.46362e-09
4.85717e-06
3.46065e-09
4.8568e-06
3.80428e-09
3.97572e-09
4.85631e-06
5.2706e-06
1.62557e-10
5.27058e-06
-7.24226e-11
5.27055e-06
5.93055e-10
5.27045e-06
-2.32281e-11
5.27046e-06
7.09172e-10
5.27031e-06
-3.30872e-10
5.27039e-06
3.83469e-10
5.27022e-06
-9.01602e-10
5.27044e-06
-1.84762e-10
5.27039e-06
-1.3306e-09
5.27072e-06
-5.66762e-10
5.27068e-06
-1.26023e-09
5.27101e-06
-4.70379e-10
5.27091e-06
-6.77732e-10
5.27116e-06
1.20009e-10
5.27093e-06
1.33986e-10
5.27104e-06
6.90423e-10
5.27075e-06
5.61451e-10
5.27082e-06
7.70528e-10
5.27056e-06
3.66429e-10
5.27068e-06
3.06527e-10
5.27053e-06
-2.5107e-10
5.27072e-06
-2.72378e-10
5.27065e-06
-6.21814e-10
5.27085e-06
-3.5154e-10
5.27076e-06
-3.52365e-10
5.27087e-06
1.70695e-10
5.27069e-06
2.45006e-10
5.27071e-06
6.12375e-10
5.27051e-06
3.84391e-10
5.27055e-06
4.17175e-10
5.27042e-06
-8.16938e-11
5.27053e-06
-9.4596e-11
5.27047e-06
-4.44326e-10
5.27059e-06
-1.5763e-10
5.27049e-06
-1.79926e-10
5.27055e-06
3.19539e-10
5.27038e-06
2.77671e-10
5.27038e-06
5.55989e-10
5.27023e-06
2.03673e-10
5.27029e-06
2.11828e-10
5.2702e-06
-2.30287e-10
5.2703e-06
-7.28587e-11
5.27021e-06
-2.11459e-10
5.27028e-06
2.28187e-10
5.27013e-06
2.00845e-10
5.27014e-06
5.13617e-10
5.26999e-06
2.27344e-10
5.27003e-06
2.51593e-10
5.26993e-06
-1.40381e-10
5.27002e-06
-6.49912e-12
5.26992e-06
-1.04527e-10
5.26997e-06
2.79943e-10
5.26983e-06
2.46067e-10
5.26984e-06
4.65115e-10
5.2697e-06
1.78552e-10
5.26974e-06
1.91289e-10
5.26965e-06
-8.75833e-11
5.26971e-06
1.25907e-10
5.26958e-06
9.8132e-11
5.2696e-06
4.17589e-10
5.26947e-06
3.0024e-10
5.26948e-06
3.86425e-10
5.26936e-06
7.57658e-11
5.26941e-06
1.69612e-10
5.26929e-06
4.40924e-11
5.26932e-06
3.29379e-10
5.26918e-06
2.61431e-10
5.26919e-06
4.22327e-10
5.26906e-06
1.78533e-10
5.26909e-06
2.56532e-10
5.26898e-06
7.94177e-11
5.26901e-06
2.96468e-10
5.26889e-06
2.11596e-10
5.26889e-06
3.94375e-10
5.26876e-06
2.21053e-10
5.26877e-06
3.33121e-10
5.26865e-06
1.75276e-10
5.26866e-06
3.4314e-10
5.26853e-06
2.42762e-10
5.26853e-06
4.03022e-10
5.2684e-06
2.70335e-10
5.26839e-06
3.88402e-10
5.26827e-06
2.53433e-10
5.26827e-06
3.85345e-10
5.26814e-06
2.72941e-10
5.26814e-06
4.05102e-10
5.26801e-06
2.83487e-10
5.268e-06
4.04001e-10
5.26788e-06
2.81503e-10
5.26787e-06
4.09e-10
5.26774e-06
2.95654e-10
5.26772e-06
4.30301e-10
5.2676e-06
3.15091e-10
5.26757e-06
4.49355e-10
5.26744e-06
3.30995e-10
5.26742e-06
4.66147e-10
5.26729e-06
3.47322e-10
5.26726e-06
4.8016e-10
5.26713e-06
3.591e-10
5.2671e-06
4.89584e-10
5.26697e-06
3.67435e-10
5.26694e-06
4.97135e-10
5.2668e-06
3.77732e-10
5.26676e-06
5.05576e-10
5.26663e-06
3.88143e-10
5.26659e-06
5.12231e-10
5.26645e-06
3.99484e-10
5.26641e-06
5.20179e-10
5.26627e-06
4.13995e-10
5.26622e-06
5.32096e-10
5.26608e-06
4.31598e-10
5.26603e-06
5.45825e-10
5.26588e-06
4.48505e-10
5.26583e-06
5.56759e-10
5.26568e-06
4.6267e-10
5.26562e-06
5.65702e-10
5.26547e-06
4.74998e-10
5.26541e-06
5.72961e-10
5.26526e-06
4.85718e-10
5.26519e-06
5.81197e-10
5.26504e-06
4.97758e-10
5.26497e-06
5.92958e-10
5.26481e-06
5.13981e-10
5.26474e-06
6.10746e-10
5.26458e-06
5.34509e-10
5.2645e-06
6.31023e-10
5.26434e-06
5.54521e-10
5.26425e-06
6.5045e-10
5.26409e-06
5.73247e-10
5.264e-06
6.69235e-10
5.26383e-06
5.91373e-10
5.26374e-06
6.87988e-10
5.26356e-06
6.0959e-10
5.26346e-06
7.07074e-10
5.26328e-06
6.27656e-10
5.26318e-06
7.26535e-10
5.26299e-06
6.46604e-10
5.26289e-06
7.47928e-10
5.2627e-06
6.67912e-10
5.26258e-06
7.72001e-10
5.26239e-06
6.92325e-10
5.26228e-06
7.98829e-10
5.26208e-06
7.18337e-10
5.26196e-06
8.26622e-10
5.26176e-06
7.46547e-10
5.26163e-06
8.57235e-10
5.26142e-06
7.7806e-10
5.26129e-06
8.89709e-10
5.26107e-06
8.10525e-10
5.26093e-06
9.22106e-10
5.26071e-06
8.43413e-10
5.26056e-06
9.55988e-10
5.26033e-06
8.78635e-10
5.26017e-06
9.92046e-10
5.25994e-06
9.16379e-10
5.25977e-06
1.03105e-09
5.25953e-06
9.58106e-10
5.25936e-06
1.07454e-09
5.25911e-06
1.00502e-09
5.25893e-06
1.12292e-09
5.25868e-06
1.05685e-09
5.25849e-06
1.17593e-09
5.25822e-06
1.11341e-09
5.25802e-06
1.23334e-09
5.25775e-06
1.17404e-09
5.25754e-06
1.29476e-09
5.25726e-06
1.23871e-09
5.25704e-06
1.36025e-09
5.25674e-06
1.3079e-09
5.25652e-06
1.43113e-09
5.25621e-06
1.38368e-09
5.25597e-06
1.51003e-09
5.25564e-06
1.4688e-09
5.25539e-06
1.59938e-09
5.25505e-06
1.56486e-09
5.25477e-06
1.69993e-09
5.25442e-06
1.6721e-09
5.25412e-06
1.81195e-09
5.25375e-06
1.7912e-09
5.25344e-06
1.93696e-09
5.25304e-06
1.92463e-09
5.2527e-06
2.07844e-09
5.25229e-06
2.07661e-09
5.25193e-06
2.241e-09
5.25149e-06
2.25187e-09
5.25112e-06
2.42904e-09
5.25067e-06
2.45424e-09
5.25028e-06
2.64558e-09
5.24982e-06
2.68585e-09
5.24943e-06
2.89172e-09
5.24897e-06
2.94678e-09
5.24859e-06
3.16644e-09
5.24815e-06
3.2347e-09
5.2478e-06
3.46503e-09
5.24739e-06
3.5385e-09
5.2471e-06
3.75408e-09
5.24672e-06
3.84276e-09
5.24642e-06
4.10448e-09
4.30956e-09
5.24609e-06
5.69144e-06
1.83208e-10
5.69141e-06
-4.02586e-11
5.69144e-06
5.64083e-10
5.69135e-06
5.99565e-11
5.69142e-06
6.46536e-10
5.69126e-06
-1.78156e-10
5.69136e-06
2.80864e-10
5.69117e-06
-7.02265e-10
5.69133e-06
-3.52464e-10
5.69119e-06
-1.18461e-09
5.69146e-06
-8.36712e-10
5.69138e-06
-1.18211e-09
5.69166e-06
-7.53251e-10
5.6916e-06
-6.13253e-10
5.69184e-06
-1.23651e-10
5.69171e-06
2.61393e-10
5.69179e-06
6.13022e-10
5.6916e-06
7.49254e-10
5.69161e-06
7.61526e-10
5.69144e-06
5.36319e-10
5.69147e-06
2.81038e-10
5.69137e-06
-1.55526e-10
5.69146e-06
-3.58299e-10
5.69144e-06
-5.99499e-10
5.69154e-06
-4.50671e-10
5.69151e-06
-3.30973e-10
5.69157e-06
1.15146e-10
5.69149e-06
3.29328e-10
5.69146e-06
6.32817e-10
5.69134e-06
5.08592e-10
5.69132e-06
4.41565e-10
5.69122e-06
1.10017e-11
5.69126e-06
-1.34137e-10
5.69123e-06
-4.11414e-10
5.69129e-06
-2.21368e-10
5.69124e-06
-1.2847e-10
5.69126e-06
3.00962e-10
5.69115e-06
3.89988e-10
5.69113e-06
5.77958e-10
5.69102e-06
3.11957e-10
5.69103e-06
2.01847e-10
5.69096e-06
-1.6463e-10
5.69101e-06
-1.16725e-10
5.69095e-06
-1.5311e-10
5.69097e-06
2.06566e-10
5.69087e-06
3.03903e-10
5.69085e-06
5.29049e-10
5.69075e-06
3.33155e-10
5.69075e-06
2.48179e-10
5.69068e-06
-6.96314e-11
5.69071e-06
-3.63033e-11
5.69064e-06
-3.83947e-11
5.69065e-06
2.73039e-10
5.69055e-06
3.48186e-10
5.69052e-06
4.88743e-10
5.69042e-06
2.77109e-10
5.69042e-06
1.93287e-10
5.69035e-06
-1.4339e-11
5.69036e-06
1.10602e-10
5.69028e-06
1.78523e-10
5.69027e-06
4.30612e-10
5.69017e-06
4.05466e-10
5.69014e-06
4.1103e-10
5.69004e-06
1.71918e-10
5.69004e-06
1.72147e-10
5.68996e-06
1.24875e-10
5.68995e-06
3.41116e-10
5.68985e-06
3.59546e-10
5.68982e-06
4.5023e-10
5.68973e-06
2.73726e-10
5.68972e-06
2.68541e-10
5.68963e-06
1.62533e-10
5.68962e-06
3.09141e-10
5.68953e-06
3.04848e-10
5.6895e-06
4.24715e-10
5.6894e-06
3.21107e-10
5.68937e-06
3.61597e-10
5.68927e-06
2.70577e-10
5.68924e-06
3.73447e-10
5.68914e-06
3.42897e-10
5.6891e-06
4.42137e-10
5.689e-06
3.72873e-10
5.68896e-06
4.26845e-10
5.68886e-06
3.51861e-10
5.68883e-06
4.22889e-10
5.68873e-06
3.71676e-10
5.68869e-06
4.46079e-10
5.68859e-06
3.83891e-10
5.68854e-06
4.46441e-10
5.68844e-06
3.82661e-10
5.6884e-06
4.55821e-10
5.68829e-06
4.011e-10
5.68824e-06
4.81057e-10
5.68813e-06
4.23802e-10
5.68808e-06
5.02385e-10
5.68797e-06
4.41629e-10
5.68791e-06
5.19742e-10
5.6878e-06
4.57746e-10
5.68775e-06
5.37067e-10
5.68763e-06
4.72597e-10
5.68757e-06
5.49211e-10
5.68746e-06
4.83118e-10
5.6874e-06
5.60015e-10
5.68728e-06
4.95762e-10
5.68721e-06
5.70766e-10
5.68709e-06
5.08132e-10
5.68702e-06
5.81173e-10
5.6869e-06
5.22241e-10
5.68683e-06
5.93247e-10
5.6867e-06
5.39613e-10
5.68662e-06
6.08948e-10
5.6865e-06
5.59621e-10
5.68642e-06
6.25336e-10
5.68629e-06
5.78373e-10
5.6862e-06
6.3986e-10
5.68607e-06
5.94843e-10
5.68599e-06
6.52286e-10
5.68585e-06
6.09692e-10
5.68576e-06
6.63916e-10
5.68562e-06
6.23724e-10
5.68553e-06
6.76318e-10
5.68539e-06
6.39366e-10
5.68529e-06
6.9285e-10
5.68514e-06
6.59779e-10
5.68504e-06
7.14717e-10
5.68489e-06
6.83116e-10
5.68478e-06
7.37799e-10
5.68463e-06
7.05822e-10
5.68452e-06
7.60656e-10
5.68436e-06
7.28273e-10
5.68425e-06
7.8426e-10
5.68409e-06
7.51301e-10
5.68397e-06
8.08552e-10
5.6838e-06
7.74483e-10
5.68368e-06
8.33124e-10
5.68351e-06
7.98239e-10
5.68337e-06
8.58387e-10
5.6832e-06
8.22593e-10
5.68306e-06
8.84809e-10
5.68288e-06
8.48766e-10
5.68274e-06
9.13173e-10
5.68256e-06
8.76823e-10
5.68241e-06
9.43607e-10
5.68222e-06
9.06902e-10
5.68207e-06
9.75886e-10
5.68188e-06
9.39774e-10
5.68172e-06
1.01177e-09
5.68153e-06
9.77028e-10
5.68136e-06
1.05139e-09
5.68116e-06
1.01721e-09
5.68099e-06
1.09243e-09
5.68077e-06
1.05837e-09
5.68059e-06
1.13424e-09
5.68037e-06
1.10073e-09
5.68019e-06
1.17738e-09
5.67996e-06
1.14523e-09
5.67977e-06
1.22334e-09
5.67953e-06
1.19379e-09
5.67933e-06
1.27398e-09
5.67909e-06
1.24774e-09
5.67888e-06
1.32992e-09
5.67863e-06
1.30722e-09
5.67841e-06
1.39128e-09
5.67816e-06
1.37201e-09
5.67793e-06
1.45742e-09
5.67767e-06
1.44126e-09
5.67743e-06
1.52792e-09
5.67716e-06
1.51535e-09
5.67691e-06
1.60381e-09
5.67662e-06
1.59551e-09
5.67637e-06
1.68651e-09
5.67607e-06
1.68343e-09
5.6758e-06
1.77808e-09
5.67549e-06
1.78132e-09
5.67521e-06
1.88061e-09
5.67488e-06
1.89084e-09
5.67459e-06
1.99522e-09
5.67425e-06
2.01258e-09
5.67394e-06
2.12219e-09
5.67358e-06
2.14671e-09
5.67325e-06
2.26197e-09
5.67288e-06
2.29429e-09
5.67255e-06
2.41649e-09
5.67217e-06
2.45807e-09
5.67182e-06
2.58903e-09
5.67143e-06
2.6415e-09
5.67107e-06
2.78279e-09
5.67068e-06
2.8471e-09
5.67033e-06
2.99929e-09
5.66994e-06
3.0752e-09
5.66959e-06
3.23752e-09
5.66922e-06
3.32347e-09
5.66889e-06
3.49374e-09
5.66854e-06
3.58592e-09
5.66825e-06
3.75514e-09
5.66794e-06
3.84071e-09
5.66767e-06
4.02401e-09
5.66738e-06
4.13717e-09
5.66715e-06
4.33675e-09
4.54539e-09
5.66691e-06
6.14588e-06
1.7593e-10
6.14583e-06
6.35492e-12
6.1459e-06
4.94012e-10
6.14582e-06
1.37523e-10
6.14593e-06
5.43007e-10
6.14579e-06
-3.74298e-11
6.1459e-06
1.69471e-10
6.1457e-06
-5.08889e-10
6.14582e-06
-4.67634e-10
6.14564e-06
-1.00331e-09
6.1458e-06
-9.96157e-10
6.14572e-06
-1.10602e-09
6.1459e-06