/*--------------------------------*- C++ -*----------------------------------*\
| =========                 |                                                 |
| \\      /  F ield         | OpenFOAM: The Open Source CFD Toolbox           |
|  \\    /   O peration     | Version:  v1912                                 |
|   \\  /    A nd           | Website:  www.openfoam.com                      |
|    \\/     M anipulation  |                                                 |
\*---------------------------------------------------------------------------*/
FoamFile
{
    version     2.0;
    format      ascii;
    class       volVectorField;
    location    "0.1";
    object      U;
}
// * * * * * * * * * * * * * * * * * * * * * * * * * * * * * * * * * * * * * //

dimensions      [0 1 -1 0 0 0 0];


internalField   nonuniform List<vector> 
12000
(
(0.999167 -3.34087e-06 0)
(1.00092 -2.37271e-05 0)
(0.998958 2.8216e-06 0)
(1.00077 -7.08566e-05 0)
(0.998786 3.71702e-05 0)
(1.00053 -8.7061e-05 0)
(0.998702 6.69087e-05 0)
(1.00021 -0.000101926 0)
(0.998709 8.80332e-05 0)
(1.00006 -0.000105217 0)
(0.998966 9.43318e-05 0)
(1.00027 -0.000100258 0)
(0.99946 9.27083e-05 0)
(1.00078 -9.27035e-05 0)
(0.999985 8.98366e-05 0)
(1.00124 -8.58233e-05 0)
(1.00019 8.93836e-05 0)
(1.00122 -8.39669e-05 0)
(0.9998 8.9102e-05 0)
(1.00061 -8.49864e-05 0)
(0.999075 8.70028e-05 0)
(0.999937 -8.72527e-05 0)
(0.998704 8.3723e-05 0)
(0.999948 -8.89962e-05 0)
(0.999167 7.99438e-05 0)
(1.00071 -8.81253e-05 0)
(1.00001 7.84903e-05 0)
(1.00135 -8.66541e-05 0)
(1.00018 7.89844e-05 0)
(1.00097 -8.5521e-05 0)
(0.999349 7.77133e-05 0)
(0.999997 -8.76784e-05 0)
(0.998608 7.6502e-05 0)
(0.999828 -9.0019e-05 0)
(0.999107 7.60708e-05 0)
(1.0008 -8.89765e-05 0)
(1.0001 7.91281e-05 0)
(1.00136 -8.57982e-05 0)
(0.999933 8.124e-05 0)
(1.0005 -8.39925e-05 0)
(0.998789 7.98046e-05 0)
(0.999649 -8.40054e-05 0)
(0.998718 7.75531e-05 0)
(1.0004 -8.32324e-05 0)
(0.999881 7.90502e-05 0)
(1.00132 -8.10122e-05 0)
(1.00002 8.05721e-05 0)
(1.00057 -8.07246e-05 0)
(0.998786 7.89463e-05 0)
(0.999601 -8.23767e-05 0)
(0.998701 7.62497e-05 0)
(1.00048 -8.11434e-05 0)
(0.999953 7.77787e-05 0)
(1.00126 -7.7097e-05 0)
(0.999717 7.96356e-05 0)
(1.00018 -7.59776e-05 0)
(0.998515 7.84205e-05 0)
(0.999677 -7.67825e-05 0)
(0.999058 7.85303e-05 0)
(1.00088 -7.36777e-05 0)
(1.00002 8.20723e-05 0)
(1.00085 -7.1293e-05 0)
(0.998975 8.18594e-05 0)
(0.999632 -7.31981e-05 0)
(0.998581 8.0136e-05 0)
(1.00036 -7.29364e-05 0)
(0.999746 8.27362e-05 0)
(1.00093 -7.06439e-05 0)
(0.999275 8.3182e-05 0)
(0.999908 -7.19775e-05 0)
(0.998621 8.15675e-05 0)
(1.00012 -7.18869e-05 0)
(0.999368 8.3039e-05 0)
(1.00066 -6.93163e-05 0)
(0.99925 8.39768e-05 0)
(1.00009 -6.86297e-05 0)
(0.998784 8.3409e-05 0)
(1.00008 -6.74083e-05 0)
(0.999112 8.43339e-05 0)
(1.00037 -6.49929e-05 0)
(0.99911 8.50463e-05 0)
(1.00014 -6.37437e-05 0)
(0.998881 8.50534e-05 0)
(1.0001 -6.26415e-05 0)
(0.998982 8.56362e-05 0)
(1.00022 -6.14506e-05 0)
(0.998979 8.61936e-05 0)
(1.00013 -6.08475e-05 0)
(0.99887 8.67941e-05 0)
(1.00008 -6.01783e-05 0)
(0.998864 8.80548e-05 0)
(1.00009 -5.92509e-05 0)
(0.998836 8.95922e-05 0)
(1.00005 -5.84799e-05 0)
(0.99878 9.11423e-05 0)
(1.00002 -5.7766e-05 0)
(0.998758 9.27509e-05 0)
(1.00001 -5.7037e-05 0)
(0.998738 9.42492e-05 0)
(0.999989 -5.64436e-05 0)
(0.998707 9.54353e-05 0)
(0.999964 -5.60168e-05 0)
(0.998677 9.6316e-05 0)
(0.999934 -5.56563e-05 0)
(0.998638 9.69574e-05 0)
(0.999895 -5.53224e-05 0)
(0.998593 9.73621e-05 0)
(0.999854 -5.5026e-05 0)
(0.99855 9.75654e-05 0)
(0.999818 -5.47457e-05 0)
(0.998511 9.76376e-05 0)
(0.999789 -5.44807e-05 0)
(0.998478 9.76016e-05 0)
(0.999764 -5.42821e-05 0)
(0.998443 9.74787e-05 0)
(0.999737 -5.41604e-05 0)
(0.998404 9.7338e-05 0)
(0.999705 -5.41052e-05 0)
(0.998357 9.72166e-05 0)
(0.999666 -5.41563e-05 0)
(0.9983 9.71172e-05 0)
(0.99962 -5.43132e-05 0)
(0.998239 9.71363e-05 0)
(0.999577 -5.4451e-05 0)
(0.998184 9.74494e-05 0)
(0.999543 -5.44319e-05 0)
(0.998136 9.81466e-05 0)
(0.999515 -5.42505e-05 0)
(0.998088 9.91612e-05 0)
(0.999484 -5.40208e-05 0)
(0.998035 0.000100343 0)
(0.999446 -5.38772e-05 0)
(0.997973 0.000101561 0)
(0.999398 -5.38908e-05 0)
(0.997901 0.000102789 0)
(0.999344 -5.40026e-05 0)
(0.997827 0.000104113 0)
(0.999292 -5.40248e-05 0)
(0.99776 0.000105685 0)
(0.999248 -5.38897e-05 0)
(0.997698 0.000107506 0)
(0.999207 -5.35565e-05 0)
(0.997636 0.000109639 0)
(0.999161 -5.29703e-05 0)
(0.997565 0.000112075 0)
(0.999105 -5.2138e-05 0)
(0.997486 0.000114835 0)
(0.999043 -5.10202e-05 0)
(0.997401 0.000117935 0)
(0.998978 -4.96254e-05 0)
(0.997316 0.000121336 0)
(0.998915 -4.79986e-05 0)
(0.997234 0.00012499 0)
(0.998857 -4.61515e-05 0)
(0.997155 0.000128923 0)
(0.998799 -4.39953e-05 0)
(0.997072 0.000133285 0)
(0.998735 -4.13408e-05 0)
(0.996979 0.000138297 0)
(0.998661 -3.80053e-05 0)
(0.996876 0.000144111 0)
(0.998579 -3.39071e-05 0)
(0.996766 0.000150777 0)
(0.998495 -2.9052e-05 0)
(0.996655 0.000158285 0)
(0.998414 -2.36453e-05 0)
(0.996546 0.00016611 0)
(0.998335 -1.81075e-05 0)
(0.996435 0.000174258 0)
(0.998254 -1.22014e-05 0)
(0.996317 0.000182981 0)
(0.998162 -5.75779e-06 0)
(0.996184 0.00019243 0)
(0.998057 1.35951e-06 0)
(0.996037 0.000202742 0)
(0.997943 9.18307e-06 0)
(0.995884 0.000213838 0)
(0.997827 1.75005e-05 0)
(0.995727 0.000225629 0)
(0.997709 2.64669e-05 0)
(0.995563 0.000238305 0)
(0.997583 3.62208e-05 0)
(0.995384 0.000252083 0)
(0.99744 4.70435e-05 0)
(0.995183 0.00026733 0)
(0.997275 5.93784e-05 0)
(0.994958 0.000284611 0)
(0.997089 7.38922e-05 0)
(0.994708 0.000304753 0)
(0.996878 9.16254e-05 0)
(0.994428 0.000329189 0)
(0.996637 0.000114611 0)
(0.994108 0.000360989 0)
(0.99635 0.000147566 0)
(0.993729 0.00040751 0)
(0.995993 0.000201663 0)
(0.993264 0.000485256 0)
(0.995541 0.000300125 0)
(0.992688 0.000625416 0)
(0.994974 0.000482295 0)
(0.999312 -1.14294e-05 0)
(1.00072 -1.48342e-05 0)
(0.999151 -1.18983e-06 0)
(1.00053 -5.66259e-05 0)
(0.999041 3.51427e-05 0)
(1.00025 -7.78887e-05 0)
(0.998995 5.87799e-05 0)
(0.999902 -0.000103539 0)
(0.999028 7.56318e-05 0)
(0.999738 -0.000115612 0)
(0.999299 7.7301e-05 0)
(0.999939 -0.000113259 0)
(0.999799 7.82425e-05 0)
(1.00044 -9.96481e-05 0)
(1.00033 8.72259e-05 0)
(1.00091 -7.95898e-05 0)
(1.00053 9.79429e-05 0)
(1.00087 -6.98169e-05 0)
(1.00015 0.000102974 0)
(1.00027 -7.26714e-05 0)
(0.999426 9.51715e-05 0)
(0.999589 -8.77124e-05 0)
(0.999058 7.97938e-05 0)
(0.999597 -0.000100395 0)
(0.999524 7.21804e-05 0)
(1.00036 -9.75869e-05 0)
(1.00038 8.02701e-05 0)
(1.001 -8.35809e-05 0)
(1.00055 9.21235e-05 0)
(1.00061 -7.64495e-05 0)
(0.999717 9.01776e-05 0)
(0.999632 -8.6328e-05 0)
(0.99898 7.91416e-05 0)
(0.99946 -9.82891e-05 0)
(0.999484 7.50845e-05 0)
(1.00043 -9.49553e-05 0)
(1.00048 8.80981e-05 0)
(1.00098 -8.13047e-05 0)
(1.00032 9.8129e-05 0)
(1.00012 -7.88012e-05 0)
(0.999174 9.12857e-05 0)
(0.999267 -8.91757e-05 0)
(0.999108 8.11311e-05 0)
(1.00002 -9.193e-05 0)
(1.00028 8.8253e-05 0)
(1.00093 -8.0207e-05 0)
(1.00042 9.90386e-05 0)
(1.00018 -7.66069e-05 0)
(0.999185 9.40083e-05 0)
(0.999204 -8.70927e-05 0)
(0.999105 8.33491e-05 0)
(1.00008 -8.84132e-05 0)
(1.00036 9.08949e-05 0)
(1.00085 -7.54478e-05 0)
(1.00013 0.000100138 0)
(0.999766 -7.43179e-05 0)
(0.998931 9.32804e-05 0)
(0.999264 -8.34667e-05 0)
(0.99948 8.94983e-05 0)
(1.00047 -7.77199e-05 0)
(1.00045 0.00010149 0)
(1.00042 -6.8627e-05 0)
(0.999404 0.000102742 0)
(0.999204 -7.61779e-05 0)
(0.999016 9.48483e-05 0)
(0.999928 -7.88289e-05 0)
(1.00019 0.000101614 0)
(1.0005 -7.04401e-05 0)
(0.999717 0.000106722 0)
(0.999468 -7.34382e-05 0)
(0.999068 0.000101046 0)
(0.999677 -7.73738e-05 0)
(0.99982 0.000102935 0)
(1.00021 -7.1894e-05 0)
(0.999705 0.000107442 0)
(0.999637 -7.05239e-05 0)
(0.999243 0.000105733 0)
(0.999625 -7.10559e-05 0)
(0.999576 0.000106898 0)
(0.999916 -6.70477e-05 0)
(0.999577 0.000110014 0)
(0.99968 -6.46453e-05 0)
(0.999354 0.000110553 0)
(0.999634 -6.39552e-05 0)
(0.999461 0.000111599 0)
(0.999741 -6.25691e-05 0)
(0.999463 0.000113187 0)
(0.999647 -6.2101e-05 0)
(0.99936 0.000114356 0)
(0.999595 -6.18704e-05 0)
(0.999361 0.000116633 0)
(0.9996 -6.07578e-05 0)
(0.99934 0.000119716 0)
(0.999549 -5.97928e-05 0)
(0.99929 0.000122607 0)
(0.999512 -5.90411e-05 0)
(0.999275 0.000125616 0)
(0.999497 -5.79679e-05 0)
(0.999261 0.000128702 0)
(0.99947 -5.69522e-05 0)
(0.999237 0.000131192 0)
(0.999439 -5.63161e-05 0)
(0.999211 0.000133098 0)
(0.999403 -5.56841e-05 0)
(0.999178 0.000134793 0)
(0.999359 -5.48597e-05 0)
(0.999139 0.00013629 0)
(0.999313 -5.39433e-05 0)
(0.999101 0.00013764 0)
(0.999271 -5.28426e-05 0)
(0.999069 0.000139051 0)
(0.999236 -5.15477e-05 0)
(0.999041 0.000140492 0)
(0.999205 -5.02813e-05 0)
(0.999014 0.000141888 0)
(0.999171 -4.91084e-05 0)
(0.998981 0.000143367 0)
(0.999132 -4.79976e-05 0)
(0.998941 0.000144956 0)
(0.999085 -4.70946e-05 0)
(0.998893 0.000146584 0)
(0.999031 -4.63946e-05 0)
(0.998841 0.000148485 0)
(0.99898 -4.55569e-05 0)
(0.998795 0.000151037 0)
(0.998937 -4.43222e-05 0)
(0.998757 0.000154314 0)
(0.998898 -4.27889e-05 0)
(0.998719 0.000158079 0)
(0.998858 -4.11986e-05 0)
(0.998677 0.000162077 0)
(0.998809 -3.97253e-05 0)
(0.998625 0.000166125 0)
(0.99875 -3.8446e-05 0)
(0.998564 0.000170169 0)
(0.998685 -3.72699e-05 0)
(0.998502 0.000174345 0)
(0.998623 -3.60213e-05 0)
(0.998446 0.000178854 0)
(0.998567 -3.44426e-05 0)
(0.998397 0.000183751 0)
(0.998515 -3.24813e-05 0)
(0.998346 0.000189189 0)
(0.998457 -2.9937e-05 0)
(0.998288 0.000195272 0)
(0.99839 -2.67414e-05 0)
(0.998221 0.000202075 0)
(0.998315 -2.28437e-05 0)
(0.998149 0.000209541 0)
(0.998237 -1.84262e-05 0)
(0.998077 0.000217408 0)
(0.998162 -1.37627e-05 0)
(0.998009 0.000225465 0)
(0.99809 -8.96231e-06 0)
(0.997943 0.000233768 0)
(0.998019 -3.79321e-06 0)
(0.997875 0.000242743 0)
(0.997941 2.28324e-06 0)
(0.997798 0.000252995 0)
(0.997853 9.77309e-06 0)
(0.99771 0.000264899 0)
(0.997757 1.88313e-05 0)
(0.997617 0.000278456 0)
(0.997657 2.92838e-05 0)
(0.997524 0.000293398 0)
(0.997559 4.06627e-05 0)
(0.997432 0.000309111 0)
(0.997463 5.25578e-05 0)
(0.997341 0.000325669 0)
(0.997364 6.53364e-05 0)
(0.997242 0.000343537 0)
(0.997254 7.94161e-05 0)
(0.99713 0.000363128 0)
(0.99713 9.51819e-05 0)
(0.997006 0.000384802 0)
(0.996997 0.000112828 0)
(0.996876 0.000408575 0)
(0.99686 0.000132182 0)
(0.996743 0.000434423 0)
(0.99672 0.000153527 0)
(0.996605 0.000462723 0)
(0.996572 0.000177267 0)
(0.996453 0.000494084 0)
(0.996406 0.000204215 0)
(0.996282 0.000529566 0)
(0.996219 0.000235689 0)
(0.996089 0.000570818 0)
(0.99601 0.000273656 0)
(0.995874 0.000620247 0)
(0.995779 0.000321165 0)
(0.995635 0.000681994 0)
(0.995521 0.000383942 0)
(0.995367 0.000764127 0)
(0.99523 0.000473256 0)
(0.995062 0.000882278 0)
(0.994901 0.000610245 0)
(0.99472 0.00106431 0)
(0.994537 0.000830372 0)
(0.99435 0.00135371 0)
(0.994153 0.00118462 0)
(0.999399 -7.62194e-07 0)
(1.00061 -1.20583e-05 0)
(0.999269 3.925e-05 0)
(1.00039 -2.4937e-05 0)
(0.999182 6.44778e-05 0)
(1.00008 -5.88692e-05 0)
(0.999152 6.25098e-05 0)
(0.999724 -0.000107352 0)
(0.999198 4.56164e-05 0)
(0.999554 -0.000134702 0)
(0.999477 2.90245e-05 0)
(0.999758 -0.000134384 0)
(0.999981 3.37891e-05 0)
(1.00027 -0.000103751 0)
(1.00051 6.37729e-05 0)
(1.00073 -5.69067e-05 0)
(1.00071 9.44997e-05 0)
(1.0007 -3.02415e-05 0)
(1.00032 0.000104624 0)
(1.00009 -3.57474e-05 0)
(0.999591 8.18519e-05 0)
(0.999411 -7.0106e-05 0)
(0.999221 4.36844e-05 0)
(0.999426 -9.62817e-05 0)
(0.999692 3.20881e-05 0)
(1.00019 -8.47171e-05 0)
(1.00055 5.86061e-05 0)
(1.00084 -4.58531e-05 0)
(1.00071 8.78655e-05 0)
(1.00044 -3.14961e-05 0)
(0.999875 8.03283e-05 0)
(0.999464 -5.64456e-05 0)
(0.999135 4.78525e-05 0)
(0.999297 -8.40829e-05 0)
(0.999644 3.89305e-05 0)
(1.00028 -7.3321e-05 0)
(1.00065 6.70931e-05 0)
(1.00083 -4.04556e-05 0)
(1.00047 8.80948e-05 0)
(0.999962 -3.88048e-05 0)
(0.999321 6.96048e-05 0)
(0.99911 -6.7522e-05 0)
(0.999256 4.64049e-05 0)
(0.999872 -7.28847e-05 0)
(1.00043 6.26542e-05 0)
(1.00079 -4.33314e-05 0)
(1.00057 8.749e-05 0)
(1.00003 -3.54696e-05 0)
(0.999325 7.30671e-05 0)
(0.999054 -6.1872e-05 0)
(0.999247 4.96667e-05 0)
(0.999942 -6.55974e-05 0)
(1.00051 6.74935e-05 0)
(1.00072 -3.64201e-05 0)
(1.00027 8.73022e-05 0)
(0.999624 -3.58792e-05 0)
(0.999063 6.85074e-05 0)
(0.999125 -5.81095e-05 0)
(0.999619 5.81113e-05 0)
(1.00034 -4.72807e-05 0)
(1.00059 8.2584e-05 0)
(1.00029 -2.58074e-05 0)
(0.999533 8.54218e-05 0)
(0.999068 -4.20872e-05 0)
(0.999145 6.53474e-05 0)
(0.999801 -4.9541e-05 0)
(1.00032 7.66795e-05 0)
(1.00037 -3.00602e-05 0)
(0.999843 8.90582e-05 0)
(0.999339 -3.42055e-05 0)
(0.99919 7.52517e-05 0)
(0.999555 -4.44762e-05 0)
(0.999945 7.64958e-05 0)
(1.00009 -3.32193e-05 0)
(0.999826 8.69342e-05 0)
(0.999519 -2.95802e-05 0)
(0.999359 8.23098e-05 0)
(0.99951 -3.35969e-05 0)
(0.999694 8.20716e-05 0)
(0.999804 -2.70834e-05 0)
(0.999693 8.84967e-05 0)
(0.999568 -2.22991e-05 0)
(0.999467 8.85591e-05 0)
(0.999523 -2.24715e-05 0)
(0.999573 8.87836e-05 0)
(0.999631 -1.99791e-05 0)
(0.999575 9.13031e-05 0)
(0.999538 -1.83202e-05 0)
(0.999471 9.20597e-05 0)
(0.999487 -1.79201e-05 0)
(0.999472 9.40008e-05 0)
(0.999494 -1.56437e-05 0)
(0.99945 9.76622e-05 0)
(0.999444 -1.32522e-05 0)
(0.999398 0.000100713 0)
(0.999409 -1.15142e-05 0)
(0.999382 0.000103864 0)
(0.999396 -9.12141e-06 0)
(0.999366 0.000107505 0)
(0.999371 -6.67555e-06 0)
(0.999339 0.000110344 0)
(0.999342 -5.00865e-06 0)
(0.999311 0.000112321 0)
(0.99931 -3.43609e-06 0)
(0.999275 0.000114201 0)
(0.999268 -1.51783e-06 0)
(0.999233 0.000115994 0)
(0.999225 5.67079e-07 0)
(0.999193 0.000117725 0)
(0.999187 3.02599e-06 0)
(0.999158 0.000119717 0)
(0.999154 5.89026e-06 0)
(0.999129 0.000121801 0)
(0.999125 8.73837e-06 0)
(0.999099 0.000123742 0)
(0.999093 1.14923e-05 0)
(0.999065 0.000125758 0)
(0.999055 1.42674e-05 0)
(0.999024 0.000127864 0)
(0.99901 1.68186e-05 0)
(0.998975 0.000129901 0)
(0.998957 1.91734e-05 0)
(0.998923 0.000132275 0)
(0.998907 2.18957e-05 0)
(0.998876 0.000135519 0)
(0.998865 2.52249e-05 0)
(0.998838 0.000139537 0)
(0.998827 2.88196e-05 0)
(0.9988 0.000143921 0)
(0.998788 3.23995e-05 0)
(0.998757 0.000148524 0)
(0.99874 3.59527e-05 0)
(0.998705 0.000153334 0)
(0.998682 3.95134e-05 0)
(0.998643 0.000158342 0)
(0.998619 4.31388e-05 0)
(0.99858 0.000163584 0)
(0.998558 4.6858e-05 0)
(0.998523 0.000169096 0)
(0.998505 5.07899e-05 0)
(0.998473 0.000174868 0)
(0.998455 5.50266e-05 0)
(0.998421 0.000181158 0)
(0.9984 5.99651e-05 0)
(0.998362 0.000188329 0)
(0.998336 6.59693e-05 0)
(0.998294 0.000196644 0)
(0.998264 7.31513e-05 0)
(0.99822 0.000205948 0)
(0.998189 8.11473e-05 0)
(0.998146 0.000215735 0)
(0.998116 8.9436e-05 0)
(0.998075 0.000225564 0)
(0.998047 9.77573e-05 0)
(0.998008 0.000235449 0)
(0.997979 0.000106433 0)
(0.997938 0.000246021 0)
(0.997905 0.000116288 0)
(0.99786 0.000258168 0)
(0.997821 0.000128092 0)
(0.997771 0.000272402 0)
(0.997728 0.000141999 0)
(0.997677 0.00028855 0)
(0.997632 0.000157561 0)
(0.997582 0.000306053 0)
(0.997538 0.000174306 0)
(0.99749 0.000324752 0)
(0.997445 0.000192251 0)
(0.997397 0.000344787 0)
(0.997349 0.000211643 0)
(0.997298 0.000366548 0)
(0.997244 0.000232942 0)
(0.997186 0.000390582 0)
(0.997125 0.000256727 0)
(0.997062 0.000417466 0)
(0.996997 0.000283453 0)
(0.996933 0.000447533 0)
(0.996865 0.000313324 0)
(0.996801 0.000480981 0)
(0.996731 0.00034659 0)
(0.996664 0.000518193 0)
(0.996589 0.000383828 0)
(0.996515 0.000560081 0)
(0.996432 0.000426339 0)
(0.996349 0.000608406 0)
(0.996255 0.000476365 0)
(0.996163 0.000665945 0)
(0.99606 0.000537232 0)
(0.995959 0.000736702 0)
(0.995849 0.000613802 0)
(0.995739 0.000826706 0)
(0.995621 0.000713559 0)
(0.995504 0.000945186 0)
(0.995379 0.000847669 0)
(0.995255 0.00110532 0)
(0.995125 0.00103111 0)
(0.994996 0.00132335 0)
(0.994865 0.00128057 0)
(0.994737 0.00161529 0)
(0.994611 0.00161016 0)
(0.999417 7.31129e-06 0)
(1.00059 -1.03244e-05 0)
(0.999293 5.32895e-05 0)
(1.00035 -1.81474e-05 0)
(0.999205 7.54148e-05 0)
(1.00003 -5.55271e-05 0)
(0.999173 5.66676e-05 0)
(0.999667 -0.00011903 0)
(0.999228 1.69793e-05 0)
(0.9995 -0.000156365 0)
(0.999516 -1.01783e-05 0)
(0.999713 -0.000151907 0)
(1.00003 5.05553e-07 0)
(1.00023 -9.98012e-05 0)
(1.00056 5.06001e-05 0)
(1.0007 -2.75091e-05 0)
(1.00076 9.8458e-05 0)
(1.00066 1.25433e-05 0)
(1.00035 0.000107042 0)
(1.00004 -6.60692e-07 0)
(0.999612 6.39925e-05 0)
(0.999357 -5.43113e-05 0)
(0.999244 5.94826e-06 0)
(0.999383 -9.03108e-05 0)
(0.999728 -6.93347e-06 0)
(1.00017 -6.64147e-05 0)
(1.00059 3.87767e-05 0)
(1.00081 -6.39791e-06 0)
(1.00075 8.22698e-05 0)
(1.0004 1.00972e-05 0)
(0.999892 6.57137e-05 0)
(0.999416 -3.34745e-05 0)
(0.999151 1.34325e-05 0)
(0.99926 -7.39986e-05 0)
(0.999674 4.6423e-06 0)
(1.00025 -5.03922e-05 0)
(1.00069 5.18023e-05 0)
(1.00081 -3.47766e-07 0)
(1.0005 8.12534e-05 0)
(0.999923 -3.71705e-06 0)
(0.99933 4.70036e-05 0)
(0.999071 -5.11058e-05 0)
(0.999276 1.36528e-05 0)
(0.99985 -5.36936e-05 0)
(1.00046 4.36555e-05 0)
(1.00077 -6.95019e-06 0)
(1.00059 7.99048e-05 0)
(0.999997 6.09188e-07 0)
(0.999331 5.22078e-05 0)
(0.999017 -4.30338e-05 0)
(0.999264 1.90389e-05 0)
(0.999925 -4.33545e-05 0)
(1.00054 5.10936e-05 0)
(1.0007 1.79456e-06 0)
(1.00028 7.90078e-05 0)
(0.99959 -2.70547e-06 0)
(0.999068 4.51341e-05 0)
(0.999096 -3.7991e-05 0)
(0.999639 3.2066e-05 0)
(1.00033 -1.67399e-05 0)
(1.00061 7.20651e-05 0)
(1.00027 1.41402e-05 0)
(0.999538 7.20789e-05 0)
(0.999034 -1.43164e-05 0)
(0.999154 4.02669e-05 0)
(0.999785 -2.35027e-05 0)
(1.00034 6.11198e-05 0)
(1.00036 8.27002e-06 0)
(0.999852 7.81492e-05 0)
(0.999311 -7.81721e-07 0)
(0.999195 5.43173e-05 0)
(0.999536 -1.65544e-05 0)
(0.999961 5.88673e-05 0)
(1.00008 2.89574e-06 0)
(0.999836 7.51503e-05 0)
(0.999498 6.40798e-06 0)
(0.999364 6.6265e-05 0)
(0.999493 -1.31581e-06 0)
(0.999704 6.64386e-05 0)
(0.999791 8.69242e-06 0)
(0.999702 7.6657e-05 0)
(0.999551 1.45459e-05 0)
(0.999473 7.56698e-05 0)
(0.999506 1.27547e-05 0)
(0.999581 7.59427e-05 0)
(0.999616 1.65931e-05 0)
(0.999582 8.01729e-05 0)
(0.999522 1.89393e-05 0)
(0.999477 8.06166e-05 0)
(0.999472 1.88108e-05 0)
(0.999479 8.24609e-05 0)
(0.99948 2.19178e-05 0)
(0.999457 8.71145e-05 0)
(0.99943 2.55502e-05 0)
(0.999405 9.07949e-05 0)
(0.999395 2.81778e-05 0)
(0.999388 9.44342e-05 0)
(0.999384 3.165e-05 0)
(0.999371 9.87254e-05 0)
(0.999359 3.51761e-05 0)
(0.999343 0.000102034 0)
(0.999331 3.76504e-05 0)
(0.999314 0.000104309 0)
(0.999299 3.98965e-05 0)
(0.999278 0.000106534 0)
(0.999259 4.25067e-05 0)
(0.999235 0.000108838 0)
(0.999216 4.53947e-05 0)
(0.999195 0.000111338 0)
(0.999179 4.88271e-05 0)
(0.99916 0.000114337 0)
(0.999146 5.27239e-05 0)
(0.999131 0.000117462 0)
(0.999117 5.64944e-05 0)
(0.999101 0.000120394 0)
(0.999085 6.01328e-05 0)
(0.999067 0.000123469 0)
(0.999048 6.38634e-05 0)
(0.999026 0.000126669 0)
(0.999002 6.73593e-05 0)
(0.998977 0.000129733 0)
(0.99895 7.0686e-05 0)
(0.998925 0.000133218 0)
(0.9989 7.46437e-05 0)
(0.99888 0.000137799 0)
(0.998858 7.94609e-05 0)
(0.998842 0.000143194 0)
(0.998821 8.45703e-05 0)
(0.998804 0.000148836 0)
(0.998782 8.96695e-05 0)
(0.998761 0.000154675 0)
(0.998734 9.48992e-05 0)
(0.998709 0.000160848 0)
(0.998678 0.000100373 0)
(0.998648 0.000167407 0)
(0.998615 0.000106178 0)
(0.998585 0.000174405 0)
(0.998555 0.000112392 0)
(0.998528 0.000181753 0)
(0.998503 0.000118797 0)
(0.998478 0.000189255 0)
(0.998454 0.000125376 0)
(0.998427 0.000197071 0)
(0.9984 0.000132548 0)
(0.998369 0.000205821 0)
(0.998338 0.00014104 0)
(0.998301 0.000216094 0)
(0.998268 0.000151137 0)
(0.998228 0.000227783 0)
(0.998194 0.000162401 0)
(0.998154 0.000240224 0)
(0.998121 0.000174091 0)
(0.998083 0.000252751 0)
(0.998053 0.000185769 0)
(0.998016 0.000265287 0)
(0.997986 0.000197781 0)
(0.997947 0.000278587 0)
(0.997913 0.000211152 0)
(0.99787 0.000293766 0)
(0.997831 0.000226849 0)
(0.997784 0.000311454 0)
(0.997741 0.000245056 0)
(0.997691 0.000331422 0)
(0.997647 0.000265256 0)
(0.997598 0.000353122 0)
(0.997554 0.000287066 0)
(0.997507 0.000376434 0)
(0.997463 0.000310551 0)
(0.997416 0.000401546 0)
(0.99737 0.000335958 0)
(0.997319 0.000428796 0)
(0.997267 0.000363769 0)
(0.997211 0.000458893 0)
(0.997152 0.000394845 0)
(0.997091 0.000492735 0)
(0.997028 0.000429977 0)
(0.996966 0.000530959 0)
(0.996901 0.000469608 0)
(0.996839 0.000573866 0)
(0.996773 0.000513984 0)
(0.996708 0.000621826 0)
(0.996637 0.000563775 0)
(0.996567 0.000676006 0)
(0.996488 0.000620756 0)
(0.996411 0.000738843 0)
(0.996324 0.000687982 0)
(0.99624 0.000813985 0)
(0.996147 0.000769645 0)
(0.996058 0.000906154 0)
(0.995962 0.00087094 0)
(0.995869 0.00102099 0)
(0.99577 0.000997895 0)
(0.995676 0.00116487 0)
(0.995576 0.00115717 0)
(0.995481 0.00134463 0)
(0.995381 0.00135556 0)
(0.995288 0.00156669 0)
(0.995191 0.00159872 0)
(0.995102 0.00183548 0)
(0.995011 0.00188919 0)
(0.999418 1.43011e-05 0)
(1.00059 -8.08169e-06 0)
(0.999292 5.72524e-05 0)
(1.00035 -5.59946e-06 0)
(0.999195 7.53438e-05 0)
(1.00001 -3.93944e-05 0)
(0.999155 4.43953e-05 0)
(0.999642 -9.98158e-05 0)
(0.999215 -8.38252e-06 0)
(0.999479 -0.000145653 0)
(0.999516 -4.62003e-05 0)
(0.999705 -0.000144285 0)
(1.00004 -3.62659e-05 0)
(1.00024 -8.251e-05 0)
(1.00059 2.67001e-05 0)
(1.0007 5.12097e-06 0)
(1.00077 8.79324e-05 0)
(1.00065 5.41831e-05 0)
(1.00035 9.70816e-05 0)
(1.00001 3.25604e-05 0)
(0.999591 4.21768e-05 0)
(0.999326 -3.63078e-05 0)
(0.999229 -2.61324e-05 0)
(0.999368 -8.04878e-05 0)
(0.999734 -3.71085e-05 0)
(1.00017 -4.89408e-05 0)
(1.00061 2.37382e-05 0)
(1.00082 2.39665e-05 0)
(1.00075 7.91612e-05 0)
(1.00039 4.25452e-05 0)
(0.999872 5.66207e-05 0)
(0.999386 -1.47139e-05 0)
(0.999133 -8.42087e-06 0)
(0.999247 -6.31207e-05 0)
(0.999681 -1.64095e-05 0)
(1.00026 -2.97771e-05 0)
(1.0007 4.53317e-05 0)
(1.00081 3.09833e-05 0)
(1.00049 7.89208e-05 0)
(0.999898 2.16444e-05 0)
(0.999306 3.24276e-05 0)
(0.999048 -3.82012e-05 0)
(0.999272 -6.86889e-06 0)
(0.999854 -3.70178e-05 0)
(1.00048 3.43783e-05 0)
(1.00078 2.1539e-05 0)
(1.00059 7.74079e-05 0)
(0.999975 2.64817e-05 0)
(0.999307 3.99599e-05 0)
(0.998994 -2.78774e-05 0)
(0.99926 2.14125e-06 0)
(0.999931 -2.30907e-05 0)
(1.00056 4.47177e-05 0)
(1.0007 3.13017e-05 0)
(1.00028 7.5066e-05 0)
(0.999564 2.08277e-05 0)
(0.999045 3.14241e-05 0)
(0.999081 -2.16656e-05 0)
(0.999644 1.94007e-05 0)
(1.00034 8.32013e-06 0)
(1.00062 6.96178e-05 0)
(1.00026 4.30985e-05 0)
(0.999517 6.52274e-05 0)
(0.99901 5.564e-06 0)
(0.999144 2.70953e-05 0)
(0.999787 -1.63633e-06 0)
(1.00035 5.63657e-05 0)
(1.00036 3.75631e-05 0)
(0.99984 7.43687e-05 0)
(0.99929 2.30679e-05 0)
(0.99918 4.40032e-05 0)
(0.999531 4.86823e-06 0)
(0.999965 5.21559e-05 0)
(1.00008 2.97198e-05 0)
(0.99983 7.15065e-05 0)
(0.999484 3.1885e-05 0)
(0.999353 5.97423e-05 0)
(0.999484 2.25864e-05 0)
(0.999703 6.1785e-05 0)
(0.999788 3.58575e-05 0)
(0.999698 7.46067e-05 0)
(0.999542 4.19381e-05 0)
(0.999464 7.25657e-05 0)
(0.999498 3.91778e-05 0)
(0.999576 7.32477e-05 0)
(0.99961 4.4319e-05 0)
(0.999576 7.87287e-05 0)
(0.999513 4.71091e-05 0)
(0.99947 7.88961e-05 0)
(0.999464 4.65172e-05 0)
(0.999473 8.06531e-05 0)
(0.999473 5.00862e-05 0)
(0.999452 8.61405e-05 0)
(0.999423 5.46766e-05 0)
(0.999399 9.0836e-05 0)
(0.999389 5.82425e-05 0)
(0.999382 9.54188e-05 0)
(0.999378 6.25329e-05 0)
(0.999365 0.000100478 0)
(0.999353 6.66952e-05 0)
(0.999336 0.000104467 0)
(0.999324 6.98186e-05 0)
(0.999307 0.00010745 0)
(0.999292 7.27104e-05 0)
(0.999271 0.000110311 0)
(0.999252 7.59586e-05 0)
(0.999229 0.000113364 0)
(0.99921 7.97808e-05 0)
(0.999189 0.000116968 0)
(0.999173 8.44924e-05 0)
(0.999155 0.000121263 0)
(0.99914 8.97247e-05 0)
(0.999125 0.000125596 0)
(0.999111 9.47249e-05 0)
(0.999096 0.000129651 0)
(0.999079 9.95937e-05 0)
(0.999063 0.000133892 0)
(0.999042 0.00010462 0)
(0.999021 0.000138296 0)
(0.998996 0.000109428 0)
(0.998972 0.000142593 0)
(0.998944 0.000114145 0)
(0.998921 0.000147476 0)
(0.998895 0.000119709 0)
(0.998876 0.000153679 0)
(0.998854 0.000126277 0)
(0.998838 0.000160752 0)
(0.998817 0.000133092 0)
(0.998801 0.000168002 0)
(0.998778 0.000139841 0)
(0.998758 0.000175457 0)
(0.998731 0.000146776 0)
(0.998706 0.000183335 0)
(0.998675 0.000154065 0)
(0.998646 0.000191725 0)
(0.998613 0.000161873 0)
(0.998584 0.000200802 0)
(0.998554 0.000170359 0)
(0.998527 0.000210488 0)
(0.998502 0.000179255 0)
(0.998477 0.000220361 0)
(0.998454 0.000188195 0)
(0.998427 0.000230269 0)
(0.998401 0.000197501 0)
(0.99837 0.000240972 0)
(0.99834 0.000208186 0)
(0.998304 0.000253386 0)
(0.998271 0.000220851 0)
(0.998233 0.000267635 0)
(0.998199 0.000235134 0)
(0.998159 0.000282961 0)
(0.998126 0.000250101 0)
(0.998089 0.000298493 0)
(0.998058 0.000265157 0)
(0.998022 0.000314079 0)
(0.997992 0.000280663 0)
(0.997954 0.000330559 0)
(0.997921 0.000297765 0)
(0.99788 0.000349165 0)
(0.997842 0.000317506 0)
(0.997796 0.000370569 0)
(0.997754 0.000340087 0)
(0.997706 0.000394584 0)
(0.997662 0.000365075 0)
(0.997614 0.000420759 0)
(0.997571 0.000392129 0)
(0.997525 0.000448949 0)
(0.997483 0.000421251 0)
(0.997437 0.000479271 0)
(0.997392 0.000452639 0)
(0.997343 0.000512116 0)
(0.997293 0.000486949 0)
(0.997239 0.000548448 0)
(0.997183 0.000525324 0)
(0.997125 0.000589458 0)
(0.997065 0.000568825 0)
(0.997006 0.000635988 0)
(0.996945 0.000617999 0)
(0.996886 0.000688344 0)
(0.996823 0.000673036 0)
(0.996763 0.000746852 0)
(0.996697 0.000734656 0)
(0.996632 0.000812854 0)
(0.99656 0.000804901 0)
(0.996491 0.000889076 0)
(0.996413 0.00088706 0)
(0.99634 0.000979234 0)
(0.996259 0.000985081 0)
(0.996184 0.00108732 0)
(0.996102 0.00110279 0)
(0.996027 0.00121688 0)
(0.995946 0.00124345 0)
(0.995872 0.00137093 0)
(0.995792 0.00140983 0)
(0.99572 0.00155201 0)
(0.995644 0.00160427 0)
(0.995576 0.00176222 0)
(0.995504 0.00182845 0)
(0.995441 0.00200257 0)
(0.995375 0.00208244 0)
(0.999416 1.77819e-05 0)
(1.00059 -6.92242e-06 0)
(0.999288 5.87761e-05 0)
(1.00034 8.95452e-07 0)
(0.999179 7.21141e-05 0)
(0.999993 -2.65143e-05 0)
(0.999131 3.70519e-05 0)
(0.999615 -8.02784e-05 0)
(0.999194 -2.75312e-05 0)
(0.999457 -0.000130761 0)
(0.999508 -7.89312e-05 0)
(0.999698 -0.000136109 0)
(1.00006 -7.36922e-05 0)
(1.00025 -7.3749e-05 0)
(1.00061 -5.09393e-06 0)
(1.00072 2.52383e-05 0)
(1.00078 7.15448e-05 0)
(1.00065 8.20902e-05 0)
(1.00033 8.82595e-05 0)
(0.999984 5.74643e-05 0)
(0.999559 3.19008e-05 0)
(0.999294 -2.21142e-05 0)
(0.999206 -4.23526e-05 0)
(0.999356 -7.51118e-05 0)
(0.999737 -5.33337e-05 0)
(1.00019 -4.22482e-05 0)
(1.00063 1.51835e-05 0)
(1.00083 3.81434e-05 0)
(1.00075 8.02986e-05 0)
(1.00037 6.09821e-05 0)
(0.999842 5.56165e-05 0)
(0.999352 -3.58491e-06 0)
(0.999106 -1.80176e-05 0)
(0.999235 -5.78668e-05 0)
(0.999686 -2.84635e-05 0)
(1.00028 -2.05792e-05 0)
(1.00072 4.09567e-05 0)
(1.00081 4.83939e-05 0)
(1.00048 7.87301e-05 0)
(0.999871 3.73591e-05 0)
(0.999274 2.74568e-05 0)
(0.999024 -2.844e-05 0)
(0.999264 -1.6333e-05 0)
(0.999862 -2.62739e-05 0)
(1.00049 2.98171e-05 0)
(1.00079 3.9535e-05 0)
(1.00058 7.72191e-05 0)
(0.99995 4.3339e-05 0)
(0.999275 3.56737e-05 0)
(0.998969 -1.6238e-05 0)
(0.999254 -5.10248e-06 0)
(0.999941 -1.04645e-05 0)
(1.00057 4.19505e-05 0)
(1.00071 4.89967e-05 0)
(1.00026 7.3861e-05 0)
(0.999536 3.67515e-05 0)
(0.999018 2.74841e-05 0)
(0.999068 -8.1265e-06 0)
(0.999649 1.69078e-05 0)
(1.00035 2.49526e-05 0)
(1.00063 7.07634e-05 0)
(1.00025 6.15959e-05 0)
(0.99949 6.50784e-05 0)
(0.998983 2.08899e-05 0)
(0.999132 2.53565e-05 0)
(0.999792 1.50952e-05 0)
(1.00036 5.74322e-05 0)
(1.00036 5.68526e-05 0)
(0.999822 7.59882e-05 0)
(0.999265 4.04199e-05 0)
(0.999162 4.38063e-05 0)
(0.999526 2.1922e-05 0)
(0.999968 5.30447e-05 0)
(1.00008 4.84224e-05 0)
(0.999821 7.36097e-05 0)
(0.999468 5.02433e-05 0)
(0.999339 6.14616e-05 0)
(0.999476 4.12333e-05 0)
(0.9997 6.53113e-05 0)
(0.999785 5.63949e-05 0)
(0.999691 7.96232e-05 0)
(0.99953 6.26367e-05 0)
(0.999453 7.74612e-05 0)
(0.999488 5.9692e-05 0)
(0.999569 7.86664e-05 0)
(0.999603 6.55834e-05 0)
(0.999568 8.50572e-05 0)
(0.999503 6.90542e-05 0)
(0.999459 8.568e-05 0)
(0.999455 6.88354e-05 0)
(0.999466 8.7728e-05 0)
(0.999467 7.29243e-05 0)
(0.999445 9.38339e-05 0)
(0.999416 7.85932e-05 0)
(0.999391 9.96925e-05 0)
(0.999381 8.36138e-05 0)
(0.999375 0.000105484 0)
(0.999371 8.90063e-05 0)
(0.999358 0.000111241 0)
(0.999345 9.38043e-05 0)
(0.999328 0.000115797 0)
(0.999316 9.76203e-05 0)
(0.999299 0.000119557 0)
(0.999284 0.000101245 0)
(0.999263 0.000123159 0)
(0.999244 0.000105089 0)
(0.999222 0.000127019 0)
(0.999202 0.000109731 0)
(0.999183 0.000131836 0)
(0.999165 0.000115605 0)
(0.999149 0.000137549 0)
(0.999133 0.000121994 0)
(0.999119 0.000143165 0)
(0.999104 0.000127996 0)
(0.999089 0.000148374 0)
(0.999072 0.000133824 0)
(0.999056 0.000153713 0)
(0.999035 0.00013981 0)
(0.999015 0.000159181 0)
(0.998988 0.000145657 0)
(0.998965 0.000164641 0)
(0.998937 0.00015166 0)
(0.998915 0.000170908 0)
(0.998889 0.000158779 0)
(0.998871 0.000178637 0)
(0.998849 0.000167015 0)
(0.998834 0.000187209 0)
(0.998813 0.000175474 0)
(0.998796 0.00019588 0)
(0.998774 0.00018385 0)
(0.998754 0.00020475 0)
(0.998728 0.000192476 0)
(0.998702 0.000214122 0)
(0.998672 0.000201579 0)
(0.998643 0.00022416 0)
(0.998611 0.000211413 0)
(0.998581 0.00023517 0)
(0.998553 0.000222275 0)
(0.998526 0.0002472 0)
(0.998501 0.000233873 0)
(0.998476 0.000259597 0)
(0.998453 0.000245494 0)
(0.998426 0.0002719 0)
(0.998401 0.000257243 0)
(0.998371 0.000284778 0)
(0.998342 0.000270216 0)
(0.998307 0.000299414 0)
(0.998276 0.000285374 0)
(0.998237 0.000316253 0)
(0.998204 0.000302562 0)
(0.998165 0.000334589 0)
(0.998133 0.000320769 0)
(0.998095 0.000353406 0)
(0.998065 0.000339282 0)
(0.998028 0.00037249 0)
(0.997999 0.000358463 0)
(0.997963 0.000392702 0)
(0.997931 0.000379472 0)
(0.997891 0.000415241 0)
(0.997855 0.000403295 0)
(0.997811 0.000440731 0)
(0.99777 0.00043015 0)
(0.997723 0.000469073 0)
(0.997681 0.00045975 0)
(0.997634 0.000499947 0)
(0.997592 0.000491818 0)
(0.997548 0.000533172 0)
(0.997507 0.000526262 0)
(0.997463 0.000568805 0)
(0.99742 0.000563341 0)
(0.997374 0.000607404 0)