/*--------------------------------*- C++ -*----------------------------------*\
| =========                 |                                                 |
| \\      /  F ield         | OpenFOAM: The Open Source CFD Toolbox           |
|  \\    /   O peration     | Version:  v1912                                 |
|   \\  /    A nd           | Website:  www.openfoam.com                      |
|    \\/     M anipulation  |                                                 |
\*---------------------------------------------------------------------------*/
FoamFile
{
    version     2.0;
    format      ascii;
    class       volScalarField;
    location    "0.9";
    object      p;
}
// * * * * * * * * * * * * * * * * * * * * * * * * * * * * * * * * * * * * * //

dimensions      [0 2 -2 0 0 0 0];


internalField   nonuniform List<scalar> 
12000
(
8.08313e-11
-1.0591e-05
-1.77205e-05
-2.12073e-05
-2.11552e-05
-1.81122e-05
-1.27305e-05
-5.84009e-06
1.8923e-06
9.79079e-06
1.74371e-05
2.44176e-05
3.05308e-05
3.55578e-05
3.94835e-05
4.22776e-05
4.40723e-05
4.49678e-05
4.51117e-05
4.45911e-05
4.34494e-05
4.1677e-05
3.92301e-05
3.60938e-05
3.22936e-05
2.79581e-05
2.32747e-05
1.85521e-05
1.41053e-05
1.02622e-05
7.24521e-06
5.25916e-06
4.34978e-06
4.60849e-06
6.02288e-06
8.70686e-06
1.26983e-05
1.81757e-05
2.51977e-05
3.39044e-05
4.42281e-05
5.61022e-05
6.92008e-05
8.3208e-05
9.75699e-05
0.000111872
0.000125533
0.000138237
0.000149663
0.000159769
0.00016849
0.000176028
0.000182463
0.000188078
0.000192963
0.000197359
0.000201346
0.000205174
0.00020893
0.000212905
0.000217258
0.000222359
0.000228404
0.000235756
0.000244528
0.00025493
0.000266885
0.000280384
0.000295111
0.000310857
0.00032715
0.000343701
0.000360027
0.000375896
0.000390943
0.000405098
0.000418183
0.000430319
0.000441494
0.000451972
0.000461847
0.000471458
0.000480946
0.000490674
0.000500786
0.00051162
0.000523271
0.000535998
0.000549792
0.000564797
0.000580868
0.000598015
0.000615966
0.000634627
0.000653647
0.00067289
0.000692004
0.000710895
0.000729289
0.000747206
0.000764499
0.000781326
0.000797665
0.000813784
0.000829739
0.000845854
0.000862204
0.000879101
0.000896579
0.000914885
0.000933968
0.000953984
0.000974782
0.000996434
0.0010187
0.0010416
0.00106485
0.00108845
0.00111213
0.00113591
0.00115956
0.0011832
0.00120666
0.00123012
0.0012535
0.00127705
0.00130072
0.00132478
0.00134918
0.00137419
0.00139972
0.00142601
0.00145291
0.00148061
0.00150892
0.00153798
0.00156756
0.00159778
0.0016284
0.00165955
0.00169098
0.00172288
0.00175501
0.0017876
0.00182044
0.00185381
0.00188752
0.00192186
0.00195666
0.00199223
0.00202836
0.00206537
0.00210303
0.00214165
0.00218096
0.00222128
0.00226231
0.00230438
0.00234718
0.00239103
0.00243563
0.0024813
0.00252775
0.00257533
0.00262373
0.00267335
0.00272388
0.00277578
0.00282875
0.00288327
0.00293907
0.00299667
0.00305577
0.0031169
0.00317978
0.00324496
0.00331213
0.0033819
0.00345397
0.00352898
0.00360668
0.00368779
0.00377208
0.00386041
0.00395264
0.00404977
0.00415181
0.00426001
0.00437462
0.00449725
0.00462853
0.00477063
0.00492475
0.00509383
0.00527979
0.00548637
0.00571591
0.00597223
0.00625671
0.006571
2.80621e-06
-1.05065e-05
-1.8562e-05
-2.22663e-05
-2.17939e-05
-1.85127e-05
-1.27745e-05
-5.86101e-06
2.00594e-06
9.78563e-06
1.75139e-05
2.43814e-05
3.05858e-05
3.55225e-05
3.95575e-05
4.22752e-05
4.4192e-05
4.50141e-05
4.52821e-05
4.46828e-05
4.36505e-05
4.17806e-05
3.94165e-05
3.61684e-05
3.24311e-05
2.79734e-05
2.33419e-05
1.85002e-05
1.40972e-05
1.01208e-05
7.1347e-06
5.00222e-06
4.11737e-06
4.23729e-06
5.69087e-06
8.26172e-06
1.23209e-05
1.77214e-05
2.48393e-05
3.35067e-05
4.39536e-05
5.58217e-05
6.90612e-05
8.30573e-05
9.75471e-05
0.00011181
0.000125567
0.000138225
0.000149728
0.000159775
0.000168568
0.000176036
0.000182533
0.000188064
0.000192987
0.000197282
0.000201281
0.000204989
0.00020873
0.000212575
0.000216917
0.000221905
0.000227972
0.00023525
0.000244084
0.000254461
0.000266521
0.000280024
0.000294869
0.000310619
0.00032702
0.000343558
0.000359967
0.000375797
0.000390902
0.000404996
0.000418119
0.000430172
0.000441364
0.000451738
0.000461607
0.000471098
0.00048057
0.00049018
0.000500289
0.00051103
0.000522706
0.000535369
0.000549218
0.000564185
0.000580331
0.000597457
0.000615493
0.000634136
0.000653234
0.000672445
0.000691618
0.00071045
0.000728877
0.00074671
0.000764016
0.000780741
0.000797076
0.000813078
0.000829022
0.00084502
0.000861366
0.00087816
0.00089565
0.00091387
0.000932983
0.000952929
0.000973773
0.000995363
0.00101768
0.00104052
0.00106382
0.00108735
0.00111106
0.00113475
0.00115842
0.00118194
0.0012054
0.00122874
0.00125211
0.00127552
0.00129917
0.00132308
0.00134747
0.00137233
0.00139786
0.001424
0.0014509
0.00147847
0.00150677
0.00153569
0.00156526
0.00159533
0.00162593
0.00165691
0.00168832
0.00172002
0.00175211
0.00178448
0.00181725
0.00185037
0.00188399
0.00191806
0.00195275
0.00198802
0.00202403
0.00206073
0.00209828
0.00213659
0.00217581
0.00221583
0.00225679
0.00229855
0.00234124
0.00238474
0.00242918
0.00247444
0.00252069
0.00256781
0.00261597
0.00266511
0.00271541
0.00276681
0.00281953
0.00287353
0.00292904
0.00298605
0.00304478
0.00310522
0.00316762
0.00323197
0.00329852
0.00336729
0.00343857
0.00351239
0.00358909
0.00366876
0.00375179
0.00383835
0.00392894
0.00402382
0.00412362
0.00422873
0.00433996
0.00445786
0.00458334
0.00471702
0.00485966
0.00501154
0.00517281
0.00534288
0.00552088
0.005705
0.00589344
0.00608391
6.01517e-06
-1.05196e-05
-1.9801e-05
-2.37455e-05
-2.27866e-05
-1.9088e-05
-1.28994e-05
-5.90602e-06
2.07731e-06
9.75761e-06
1.75424e-05
2.43277e-05
3.0637e-05
3.55459e-05
3.97177e-05
4.24342e-05
4.44951e-05
4.53074e-05
4.56978e-05
4.50604e-05
4.41099e-05
4.21573e-05
3.98243e-05
3.64427e-05
3.26934e-05
2.80658e-05
2.34053e-05
1.83821e-05
1.39312e-05
9.75651e-06
6.70513e-06
4.36893e-06
3.42594e-06
3.37202e-06
4.80408e-06
7.25776e-06
1.13571e-05
1.67164e-05
2.39602e-05
3.26649e-05
4.33131e-05
5.52773e-05
6.87565e-05
8.28673e-05
9.75856e-05
0.000111927
0.000125855
0.000138534
0.000150144
0.000160148
0.000168986
0.00017636
0.000182848
0.000188239
0.000193105
0.000197222
0.000201134
0.000204619
0.000208242
0.000211852
0.000216093
0.000220905
0.000226947
0.000234148
0.000243058
0.000253465
0.000265702
0.000279311
0.000294385
0.000310264
0.000326887
0.000343518
0.00036008
0.00037592
0.00039109
0.000405111
0.000418222
0.000430135
0.00044125
0.000451428
0.00046118
0.000470448
0.000479799
0.000489209
0.000499239
0.000509843
0.000521513
0.000534122
0.000548046
0.000563033
0.000579317
0.000596508
0.000614711
0.000633424
0.000652668
0.000671909
0.000691167
0.000709959
0.000728397
0.000746119
0.000763371
0.000779929
0.000796169
0.000811975
0.000827813
0.000843626
0.000859892
0.000876542
0.000894003
0.000912136
0.000931275
0.000951182
0.000972093
0.000993675
0.00101608
0.00103891
0.00106228
0.00108578
0.00110952
0.00113312
0.00115678
0.00118017
0.00120356
0.00122673
0.00125001
0.00127323
0.00129678
0.00132051
0.0013448
0.0013695
0.00139495
0.00142096
0.00144781
0.00147524
0.00150352
0.00153231
0.00156185
0.00159179
0.00162233
0.00165315
0.00168446
0.00171597
0.00174792
0.00178005
0.00181265
0.00184549
0.00187891
0.00191267
0.00194714
0.00198209
0.00201787
0.00205425
0.00209155
0.00212954
0.0021685
0.00220817
0.00224885
0.00229022
0.00233259
0.00237565
0.00241972
0.00246448
0.00251029
0.00255684
0.0026045
0.00265301
0.00270274
0.00275345
0.00280554
0.00285877
0.00291355
0.00296966
0.00302751
0.00308688
0.00314821
0.00321126
0.0032765
0.00334369
0.00341333
0.00348521
0.00355986
0.0036371
0.00371751
0.00380095
0.00388808
0.00397878
0.00407376
0.00417289
0.00427684
0.00438535
0.00449885
0.0046168
0.00473928
0.00486528
0.00499444
0.00512525
0.00525691
0.00538752
0.0055161
0.00564082
5.77508e-06
-1.07106e-05
-2.01184e-05
-2.40276e-05
-2.30552e-05
-1.92367e-05
-1.30458e-05
-6.00505e-06
1.91515e-06
9.61943e-06
1.73694e-05
2.42521e-05
3.06164e-05
3.56936e-05
3.99709e-05
4.28709e-05
4.50246e-05
4.59858e-05
4.64137e-05
4.58559e-05
4.48659e-05
4.29058e-05
4.04451e-05
3.69735e-05
3.30231e-05
2.82499e-05
2.33439e-05
1.81461e-05
1.34286e-05
9.0696e-06
5.75199e-06
3.24661e-06
2.06956e-06
1.8951e-06
3.16842e-06
5.59017e-06
9.6441e-06
1.50987e-05
2.24331e-05
3.13776e-05
4.22444e-05
5.45534e-05
6.83187e-05
8.2804e-05
9.77863e-05
0.000112433
0.000126526
0.000139385
0.000151032
0.000161082
0.00016983
0.000177137
0.000183434
0.000188667
0.000193265
0.000197161
0.000200746
0.000203962
0.000207236
0.000210598
0.000214555
0.000219218
0.000225112
0.000232324
0.000241275
0.00025188
0.00026432
0.000278263
0.000293634
0.000309892
0.000326793
0.00034372
0.000360436
0.000376415
0.00039157
0.000405569
0.000418515
0.00043027
0.000441106
0.000451035
0.000460446
0.000469441
0.000478463
0.000487656
0.00049745
0.000507949
0.000519516
0.000532159
0.000546125
0.000561281
0.000577722
0.000595167
0.000613567
0.000632532
0.000651933
0.000671338
0.000690635
0.000709464
0.000727808
0.000745439
0.000762481
0.000778851
0.000794808
0.000810389
0.000825939
0.000841551
0.000857586
0.000874114
0.000891438
0.000909549
0.000928652
0.000948628
0.000969577
0.000991279
0.00101375
0.00103669
0.00106009
0.00108364
0.00110734
0.00113091
0.00115443
0.00117771
0.0012009
0.00122389
0.00124692
0.00126995
0.00129324
0.00131678
0.00134084
0.00136539
0.00139065
0.00141655
0.00144325
0.00147062
0.00149877
0.00152751
0.00155691
0.00158677
0.00161715
0.00164784
0.00167892
0.00171023
0.00174189
0.00177376
0.00180601
0.00183855
0.00187157
0.001905
0.00193905
0.00197365
0.00200901
0.00204502
0.00208189
0.0021195
0.002158
0.00219727
0.00223743
0.00227835
0.00232015
0.00236268
0.00240609
0.00245024
0.0024953
0.00254114
0.00258795
0.00263564
0.00268441
0.00273418
0.00278518
0.00283733
0.00289085
0.00294568
0.00300206
0.00305991
0.00311947
0.00318068
0.00324378
0.0033087
0.00337572
0.00344476
0.00351612
0.00358974
0.00366592
0.00374461
0.00382608
0.00391025
0.00399731
0.00408705
0.00417955
0.00427441
0.00437151
0.00447022
0.00457022
0.00467068
0.00477108
0.00487044
0.00496818
0.00506332
0.00515544
0.00524416
1.9022e-06
-1.13866e-05
-1.93068e-05
-2.27591e-05
-2.21068e-05
-1.86932e-05
-1.3002e-05
-6.22551e-06
1.44958e-06
9.15931e-06
1.6906e-05
2.39891e-05
3.05064e-05
3.58875e-05
4.03674e-05
4.35673e-05
4.58792e-05
4.70576e-05
4.75381e-05
4.70731e-05
4.60055e-05
4.40023e-05
4.1333e-05
3.76937e-05
3.34263e-05
2.83943e-05
2.31062e-05
1.76076e-05
1.24913e-05
7.83529e-06
4.14945e-06
1.39407e-06
-7.95536e-08
-4.13547e-07
6.77576e-07
3.07803e-06
7.10829e-06
1.27245e-05
2.02446e-05
2.95607e-05
4.08101e-05
5.36408e-05
6.78848e-05
8.29129e-05
9.83252e-05
0.000113395
0.000127747
0.00014084
0.000152536
0.000162609
0.000171206
0.000178345
0.000184326
0.000189246
0.000193408
0.000196892
0.000199976
0.000202752
0.000205545
0.000208539
0.000212134
0.00021659
0.000222336
0.000229596
0.000238675
0.000249597
0.000262411
0.000276864
0.000292728
0.000309523
0.000326856
0.000344179
0.00036113
0.000377276
0.000392418
0.000406329
0.000419019
0.000430469
0.000440873
0.00045037
0.000459277
0.000467831
0.00047641
0.000485272
0.000494772
0.000505122
0.0005166
0.000529312
0.000543403
0.000558823
0.000575549
0.000593364
0.000612095
0.000631406
0.000651045
0.000670656
0.000690021
0.00070886
0.00072707
0.000744515
0.000761249
0.000777296
0.000792852
0.000808068
0.00082323
0.000838536
0.000854279
0.000870625
0.000887804
0.000905886
0.000924991
0.000945071
0.000966126
0.000987997
0.00101059
0.00103369
0.00105715
0.00108076
0.0011044
0.0011279
0.00115124
0.00117432
0.00119721
0.00121993
0.00124261
0.00126533
0.00128828
0.00131154
0.0013353
0.00135963
0.00138467
0.00141042
0.00143696
0.00146423
0.00149225
0.00152091
0.00155017
0.0015799
0.00161007
0.00164056
0.00167136
0.00170237
0.00173365
0.00176514
0.00179693
0.00182901
0.00186152
0.00189446
0.00192797
0.00196207
0.00199688
0.00203238
0.00206869
0.00210576
0.00214367
0.00218235
0.00222186
0.00226212
0.00230318
0.00234496
0.00238752
0.00243079
0.00247486
0.00251968
0.00256536
0.00261187
0.00265934
0.00270775
0.00275725
0.00280783
0.00285962
0.00291262
0.00296697
0.00302266
0.00307981
0.00313841
0.0031986
0.00326035
0.00332378
0.00338887
0.00345573
0.00352431
0.0035947
0.00366681
0.00374067
0.00381611
0.00389309
0.00397132
0.00405067
0.00413073
0.00421125
0.00429173
0.0043718
0.00445088
0.00452853
0.00460415
0.00467732
0.00474754
0.00481473
0.00487865
-3.99174e-06
-1.28747e-05
-1.83147e-05
-2.0722e-05
-2.01843e-05
-1.73814e-05
-1.2549e-05
-6.42017e-06
7.7081e-07
8.34751e-06
1.6124e-05
2.34854e-05
3.03109e-05
3.61212e-05
4.096e-05
4.45565e-05
4.71391e-05
4.85799e-05
4.91682e-05
4.87765e-05
4.76165e-05
4.54884e-05
4.25379e-05
3.85924e-05
3.38899e-05
2.84261e-05
2.26194e-05
1.66418e-05
1.10018e-05
5.89478e-06
1.74659e-06
-1.3664e-06
-3.18423e-06
-3.73708e-06
-2.82241e-06
-4.39729e-07
3.66261e-06
9.53862e-06
1.742e-05
2.72694e-05
3.91129e-05
5.26468e-05
6.75735e-05
8.33013e-05
9.93045e-05
0.000114904
0.00012962
0.000142968
0.000154733
0.000164757
0.000173132
0.000179953
0.000185473
0.000189872
0.000193411
0.000196261
0.000198661
0.000200809
0.000202995
0.000205492
0.000208675
0.000212893
0.000218542
0.000225917
0.000235265
0.000246653
0.00026004
0.000275183
0.000291741
0.000309228
0.000327144
0.000344959
0.000362223
0.000378538
0.000393641
0.000407361
0.000419673
0.000430635
0.000440429
0.000449284
0.000457517
0.000465456
0.000473467
0.000481883
0.000491041
0.000501214
0.000512646
0.000525484
0.000539818
0.000555617
0.000572779
0.000591089
0.000610285
0.000630031
0.000649998
0.000669845
0.000689291
0.000708092
0.000726102
0.000743242
0.000759546
0.000775109
0.000790127
0.000804824
0.000819484
0.000834368
0.000849757
0.000865868
0.0008829
0.000900963
0.000920125
0.000940359
0.000961602
0.000983701
0.0010065
0.00102977
0.00105334
0.00107699
0.00110056
0.00112392
0.001147
0.00116978
0.00119228
0.00121458
0.00123681
0.00125909
0.0012816
0.00130447
0.00132787
0.0013519
0.00137668
0.00140223
0.00142861
0.00145575
0.00148364
0.00151218
0.00154128
0.00157083
0.00160076
0.00163096
0.00166138
0.00169198
0.00172275
0.0017537
0.0017849
0.00181637
0.00184821
0.0018805
0.00191332
0.00194674
0.00198085
0.00201568
0.00205127
0.00208764
0.0021248
0.00216272
0.00220141
0.00224081
0.00228092
0.0023217
0.00236316
0.00240527
0.00244806
0.00249153
0.00253573
0.00258067
0.00262644
0.00267306
0.0027206
0.0027691
0.00281864
0.00286924
0.00292097
0.00297384
0.0030279
0.00308315
0.00313962
0.00319729
0.00325619
0.00331626
0.00337751
0.00343983
0.0035032
0.00356748
0.00363259
0.00369833
0.00376456
0.00383103
0.00389753
0.00396375
0.00402943
0.00409418
0.0041577
0.00421957
0.00427947
0.004337
0.00439193
0.00444407
0.00449333
0.00453955
-1.03283e-05
-1.53543e-05
-1.82562e-05
-1.9264e-05
-1.83466e-05
-1.57999e-05
-1.16135e-05
-6.15322e-06
4.75145e-07
7.75911e-06
1.5467e-05
2.30258e-05
3.01945e-05
3.64818e-05
4.18094e-05
4.5898e-05
4.88625e-05
5.06168e-05
5.13675e-05
5.10361e-05
4.97652e-05
4.74033e-05
4.40631e-05
3.96415e-05
3.43494e-05
2.8259e-05
2.1766e-05
1.51192e-05
8.80461e-06
3.08558e-06
-1.63809e-06
-5.22598e-06
-7.44338e-06
-8.25768e-06
-7.48462e-06
-5.06264e-06
-7.65874e-07
5.50679e-06
1.39416e-05
2.45182e-05
3.71864e-05
5.16298e-05
6.74595e-05
8.40626e-05
0.000100827
0.000117068
0.000132235
0.000145854
0.000157669
0.000167555
0.000175586
0.000181911
0.000186777
0.000190426
0.000193125
0.000195109
0.000196636
0.000197969
0.000199409
0.000201297
0.000204025
0.000208003
0.000213626
0.000221224
0.00023101
0.000243049
0.000257226
0.000273259
0.000290714
0.000309059
0.000327711
0.000346111
0.000363745
0.000380209
0.000395212
0.000408609
0.000420383
0.000430653
0.00043963
0.000447624
0.000454992
0.000462133
0.000469439
0.000477304
0.000486075
0.000496067
0.000507513
0.000520569
0.000535284
0.000551607
0.000569369
0.000588317
0.000608115
0.000628395
0.000648767
0.000668873
0.00068839
0.000707081
0.000724793
0.000741482
0.000757201
0.000772105
0.000786421
0.000800435
0.000814457
0.000828803
0.000843767
0.000859601
0.000876495
0.000894569
0.000913857
0.000934319
0.000955839
0.000978242
0.00100131
0.00102481
0.0010485
0.00107217
0.00109564
0.00111878
0.00114152
0.00116385
0.00118584
0.00120757
0.0012292
0.00125089
0.00127283
0.0012952
0.00131815
0.00134182
0.0013663
0.00139163
0.00141782
0.00144483
0.00147257
0.00150096
0.00152987
0.00155919
0.0015888
0.00161861
0.00164855
0.00167858
0.00170872
0.00173896
0.00176938
0.00180005
0.00183106
0.00186249
0.00189446
0.00192702
0.00196027
0.00199424
0.00202896
0.00206445
0.00210069
0.00213765
0.00217532
0.00221363
0.00225257
0.0022921
0.00233219
0.00237282
0.00241401
0.00245576
0.0024981
0.00254107
0.00258471
0.00262907
0.00267419
0.0027201
0.00276687
0.0028145
0.00286303
0.00291245
0.00296276
0.00301395
0.00306598
0.00311881
0.0031724
0.00322666
0.00328153
0.00333688
0.00339264
0.00344865
0.0035048
0.0035609
0.00361679
0.00367228
0.00372716
0.00378119
0.00383415
0.00388576
0.00393577
0.0039839
0.00402994
0.00407369
0.00411505
0.00415391
0.00419018
0.00422377
-1.63496e-05
-1.8562e-05
-1.94179e-05
-1.90731e-05
-1.74342e-05
-1.46446e-05
-1.05875e-05
-5.42652e-06
8.56636e-07
7.91344e-06
1.55469e-05
2.32203e-05
3.06501e-05
3.7334e-05
4.31084e-05
4.76683e-05
5.10509e-05
5.31354e-05
5.40676e-05
5.37575e-05
5.23291e-05
4.96545e-05
4.58254e-05
4.07747e-05
3.47231e-05
2.78006e-05
2.04228e-05
1.28966e-05
5.72337e-06
-7.836e-07
-6.21982e-06
-1.03992e-05
-1.30758e-05
-1.41698e-05
-1.34898e-05
-1.09392e-05
-6.29521e-06
5.57913e-07
9.77383e-06
2.13131e-05
3.50601e-05
5.06536e-05
6.76239e-05
8.53053e-05
0.00010301
0.000120012
0.000135706
0.000149599
0.000161414
0.000171044
0.00017857
0.000184186
0.000188164
0.000190806
0.000192414
0.000193288
0.000193726
0.000194047
0.000194593
0.000195771
0.00019801
0.000201771
0.000207463
0.00021543
0.000225854
0.000238763
0.000253968
0.00027112
0.000289689
0.000309075
0.000328613
0.000347686
0.000365721
0.000382293
0.000397095
0.000410011
0.000421049
0.000430395
0.000438321
0.000445218
0.000451505
0.000457654
0.000464108
0.000471321
0.000479671
0.000489503
0.000501043
0.00051444
0.000529696
0.000546716
0.000565257
0.000585007
0.000605555
0.000626478
0.000647325
0.0006677
0.00068725
0.000705738
0.000723017
0.000739084
0.000754031
0.000768074
0.000781493
0.000794638
0.000807869
0.000821558
0.000836025
0.000851553
0.000868328
0.000886465
0.000905963
0.000926748
0.000948649
0.000971446
0.000994866
0.00101863
0.00104247
0.00106614
0.00108944
0.00111226
0.00113453
0.00115627
0.00117756
0.00119854
0.0012194
0.00124034
0.00126158
0.00128332
0.00130574
0.00132898
0.00135312
0.0013782
0.00140419
0.00143104
0.00145864
0.00148685
0.00151553
0.00154454
0.00157375
0.00160306
0.00163238
0.0016617
0.001691
0.00172035
0.0017498
0.00177946
0.00180943
0.00183981
0.00187072
0.00190224
0.00193444
0.00196736
0.00200104
0.00203545
0.00207059
0.0021064
0.00214283
0.00217983
0.00221735
0.00225533
0.00229375
0.00233258
0.00237182
0.00241148
0.00245158
0.00249216
0.00253325
0.00257489
0.00261712
0.00265997
0.00270347
0.00274762
0.00279243
0.00283786
0.00288389
0.00293047
0.00297755
0.00302503
0.00307285
0.00312091
0.00316911
0.00321733
0.00326547
0.0033134
0.00336098
0.00340808
0.00345456
0.00350024
0.00354496
0.00358856
0.00363084
0.00367161
0.00371072
0.00374799
0.00378334
0.00381668
0.00384792
0.00387698
0.0039038
0.00392831
-2.19256e-05
-2.23709e-05
-2.1768e-05
-2.02571e-05
-1.77554e-05
-1.43771e-05
-9.97371e-06
-4.63465e-06
1.72263e-06
8.83569e-06
1.65601e-05
2.44103e-05
3.20943e-05
3.91033e-05
4.52328e-05
5.01544e-05
5.3867e-05
5.62029e-05
5.72629e-05
5.69305e-05
5.52801e-05
5.21857e-05
4.77402e-05
4.18979e-05
3.49025e-05
2.69328e-05
1.84469e-05
9.8103e-06
1.56341e-06
-5.93153e-06
-1.22424e-05
-1.71347e-05
-2.03267e-05
-2.16974e-05
-2.10367e-05
-1.82291e-05
-1.30516e-05
-5.3923e-06
4.86816e-06
1.76441e-05
3.27561e-05
4.97781e-05
6.81568e-05
8.71518e-05
0.000105992
0.000123886
0.00014017
0.000154324
0.000166056
0.000175276
0.000182092
0.000186744
0.000189559
0.000190901
0.000191135
0.000190627
0.000189728
0.000188826
0.000188325
0.000188699
0.000190431
0.000194026
0.000199912
0.000208428
0.000219718
0.000233751
0.00025025
0.000268777
0.000288703
0.000309336
0.000329913
0.000349741
0.000368188
0.000384801
0.000399268
0.000411505
0.000421573
0.000429734
0.000436341
0.000441875
0.000446835
0.000451781
0.000457228
0.000463694
0.0004716
0.000481312
0.000493051
0.000506939
0.000522922
0.000540837
0.000560361
0.000581102
0.000602563
0.000624247
0.000645631
0.000666276
0.000685798
0.000703962
0.000720643
0.000735883
0.000749831
0.000762776
0.000775068
0.000787137
0.000799408
0.000812314
0.000826215
0.000841417
0.000858105
0.000876374
0.000896183
0.000917406
0.000939806
0.000963103
0.000986957
0.00101104
0.00103503
0.00105866
0.00108172
0.0011041
0.00112574
0.0011467
0.0011671
0.00118713
0.00120702
0.00122703
0.00124741
0.0012684
0.00129019
0.00131292
0.00133668
0.00136148
0.00138728
0.00141396
0.00144139
0.00146941
0.00149781
0.00152644
0.00155515
0.00158381
0.00161236
0.00164077
0.00166905
0.00169728
0.00172554
0.00175395
0.00178265
0.00181176
0.0018414
0.00187167
0.00190263
0.00193433
0.00196677
0.00199993
0.00203377
0.00206821
0.0021032
0.00213864
0.00217447
0.00221064
0.00224708
0.00228378
0.00232073
0.00235793
0.0023954
0.00243319
0.00247132
0.00250984
0.00254877
0.00258815
0.00262797
0.00266824
0.00270893
0.00275
0.0027914
0.00283307
0.00287492
0.00291687
0.00295881
0.00300065
0.00304228
0.00308361
0.00312451
0.00316489
0.00320463
0.00324363
0.00328176
0.0033189
0.00335494
0.00338975
0.0034232
0.00345518
0.00348562
0.00351445
0.00354162
0.00356707
0.00359073
0.00361253
0.00363241
0.00365035
-2.73063e-05
-2.67262e-05
-2.51376e-05
-2.26895e-05
-1.93203e-05
-1.51534e-05
-1.00571e-05
-4.12188e-06
2.74501e-06
1.0308e-05
1.84415e-05
2.66817e-05
3.47407e-05
4.21058e-05
4.85589e-05
5.37578e-05
5.76672e-05
6.01175e-05
6.11656e-05
6.06596e-05
5.8647e-05
5.49824e-05
4.97492e-05
4.29229e-05
3.47719e-05
2.55212e-05
1.56778e-05
5.66752e-06
-3.90557e-06
-1.26117e-05
-1.99651e-05
-2.5687e-05
-2.94428e-05
-3.10679e-05
-3.0332e-05
-2.71089e-05
-2.11821e-05
-1.24577e-05
-8.63004e-07
1.3465e-05
3.0275e-05
4.90558e-05
6.91554e-05
8.97327e-05
0.000109919
0.000128839
0.000145766
0.000160145
0.00017168
0.000180301
0.000186156
0.00018955
0.000190885
0.000190601
0.000189135
0.000186928
0.000184414
0.000182059
0.000180351
0.000179837
0.00018106
0.000184568
0.000190799
0.000200078
0.000212492
0.000227933
0.00024603
0.000266233
0.000287792
0.000309896
0.00033167
0.000352331
0.000371182
0.000387744
0.000401709
0.000413038
0.000421864
0.000428538
0.000433512
0.000437375
0.000440732
0.000444247
0.000448523
0.000454152
0.000461598
0.00047125
0.000483314
0.000497869
0.00051479
0.000533831
0.000554573
0.000576522
0.000599077
0.000621647
0.000643631
0.000664535
0.000683947
0.000701641
0.000717523
0.000731692
0.000744371
0.000755941
0.000766844
0.000777605
0.000788732
0.000800725
0.00081399
0.000828855
0.000845497
0.000863983
0.000884218
0.00090601
0.000929043
0.000952958
0.000977339
0.00100179
0.00102594
0.00104949
0.00107222
0.001094
0.00111483
0.0011348
0.00115407
0.00117292
0.00119162
0.0012105
0.00122984
0.00124994
0.00127099
0.00129316
0.0013165
0.00134101
0.00136659
0.00139311
0.00142037
0.00144814
0.00147622
0.00150439
0.00153247
0.00156034
0.00158793
0.00161523
0.00164226
0.00166913
0.00169595
0.00172288
0.00175007
0.00177767
0.00180583
0.00183463
0.00186416
0.00189444
0.00192546
0.00195718
0.00198952
0.0020224
0.00205572
0.00208937
0.00212327
0.00215734
0.00219152
0.00222577
0.0022601
0.0022945
0.00232901
0.00236366
0.00239849
0.00243355
0.00246886
0.00250445
0.00254031
0.00257644
0.00261279
0.00264933
0.00268598
0.00272267
0.0027593
0.00279577
0.002832
0.00286788
0.00290331
0.00293821
0.00297247
0.00300601
0.00303876
0.00307061
0.0031015
0.00313135
0.00316006
0.00318758
0.00321385
0.00323883
0.00326249
0.00328478
0.00330567
0.0033251
0.00334301
0.00335935
0.00337408
0.00338718
-3.28605e-05
-3.16793e-05
-2.93966e-05
-2.61719e-05
-2.19593e-05
-1.69033e-05
-1.08978e-05
-4.06083e-06
3.67433e-06
1.20594e-05
2.09518e-05
2.98799e-05
3.85408e-05
4.64107e-05
5.32557e-05
5.87131e-05
6.27468e-05
6.51602e-05
6.60069e-05
6.51216e-05
6.25354e-05
5.80839e-05
5.18447e-05
4.37989e-05
3.42396e-05
2.3433e-05
1.19454e-05
2.73382e-07
-1.08986e-05
-2.10638e-05
-2.96407e-05
-3.62936e-05
-4.06373e-05
-4.24852e-05
-4.15737e-05
-3.77662e-05
-3.08598e-05
-2.07922e-05
-7.53525e-06
8.70851e-06
2.75979e-05
4.85134e-05
7.06823e-05
9.31403e-05
0.0001149
0.000134988
0.000152606
0.000167166
0.000178369
0.000186176
0.000190792
0.000192603
0.000192093
0.000189796
0.000186246
0.000181986
0.000177546
0.000173494
0.000170411
0.000168929
0.000169653
0.000173168
0.000179918
0.000190195
0.000204024
0.000221206
0.00024125
0.00026347
0.000286968
0.000310787
0.000333925
0.000355495
0.000374732
0.000391132
0.000404402
0.000414562
0.000421829
0.000426664
0.000429643
0.000431488
0.000432936
0.000434771
0.000437703
0.000442401
0.000449381
0.000459044
0.000471574
0.000486993
0.000505094
0.000525528
0.000547754
0.000571152
0.000594997
0.000618587
0.000641232
0.000662376
0.000681582
0.000698635
0.000713482
0.000726299
0.000737403
0.000747287
0.00075651
0.00076571
0.00077549
0.00078643
0.000798985
0.000813501
0.000830143
0.000848937
0.000869724
0.000892228
0.00091604
0.000940705
0.000965715
0.000990598
0.00101491
0.00103833
0.0010606
0.00108164
0.00110144
0.00112018
0.00113808
0.00115548
0.00117275
0.00119026
0.00120839
0.00122744
0.00124764
0.00126917
0.00129205
0.00131624
0.00134161
0.00136796
0.00139503
0.00142255
0.00145023
0.00147784
0.00150518
0.0015321
0.00155854
0.00158449
0.00161003
0.00163528
0.0016604
0.00168558
0.00171101
0.00173687
0.00176331
0.00179044
0.00181834
0.00184701
0.00187643
0.00190654
0.00193721
0.00196834
0.0019998
0.00203145
0.00206318
0.00209491
0.00212656
0.00215811
0.00218953
0.00222086
0.00225212
0.00228336
0.00231464
0.002346
0.00237748
0.00240911
0.00244087
0.00247277
0.00250475
0.00253676
0.00256873
0.00260056
0.00263216
0.00266344
0.0026943
0.00272465
0.00275439
0.00278344
0.00281175
0.00283923
0.00286584
0.00289152
0.00291622
0.00293992
0.00296257
0.00298417
0.00300469
0.00302414
0.00304246
0.00305965
0.00307564
0.0030904
0.00310387
0.00311602
0.00312681
0.00313624
-3.88545e-05
-3.73025e-05
-3.44823e-05
-3.05626e-05
-2.55119e-05
-1.94969e-05
-1.24377e-05
-4.48596e-06
4.38782e-06
1.38886e-05
2.38439e-05
3.37463e-05
4.32628e-05
5.18377e-05
5.92112e-05
6.49989e-05
6.91488e-05
7.14549e-05
7.19616e-05
7.05035e-05
6.71137e-05
6.16234e-05
5.41086e-05
4.45587e-05
3.32958e-05
2.06279e-05
7.18709e-06
-6.44873e-06
-1.95002e-05
-3.13585e-05
-4.13549e-05
-4.90721e-05
-5.40739e-05
-5.613e-05
-5.49541e-05
-5.04032e-05
-4.2289e-05
-3.05884e-05
-1.53221e-05
3.22524e-06
2.46031e-05
4.80615e-05
7.26831e-05
9.73557e-05
0.00012095
0.000142377
0.000160758
0.000175465
0.000186204
0.000192977
0.000196059
0.000195921
0.000193155
0.000188415
0.000182358
0.000175649
0.00016894
0.000162919
0.000158275
0.000155732
0.00015596
0.000159578
0.000167025
0.000178558
0.000194127
0.000213419
0.000235796
0.000260405
0.000286175
0.000311979
0.000336664
0.000359229
0.000378836
0.000394957
0.000407326
0.000416026
0.000421381
0.000423985
0.000424568
0.000424013
0.000423213
0.000423095
0.000424489
0.000428153
0.000434651
0.000444395
0.000457539
0.000474038
0.000493584
0.000515699
0.000539697
0.000564805
0.000590153
0.000614909
0.000638281
0.000659647
0.000678543
0.000694769
0.000708328
0.000719488
0.000728686
0.000736549
0.000743774
0.000751131
0.00075934
0.000769069
0.000780824
0.000794971
0.000811655
0.00083085
0.000852318
0.000875684
0.000900429
0.000925983
0.000951728
0.000977101
0.00100159
0.00102481
0.00104652
0.00106662
0.00108519
0.00110244
0.00111869
0.00113437
0.00114993
0.00116584
0.00118253
0.00120037
0.00121961
0.00124041
0.00126277
0.00128664
0.00131179
0.00133796
0.00136483
0.00139205
0.00141929
0.00144626
0.00147272
0.00149853
0.00152361
0.001548
0.00157179
0.00159515
0.0016183
0.00164146
0.00166486
0.00168873
0.00171323
0.00173849
0.00176457
0.00179147
0.00181913
0.00184746
0.00187632
0.00190554
0.00193497
0.00196445
0.00199384
0.00202303
0.00205196
0.00208058
0.00210889
0.00213694
0.00216475
0.00219242
0.00221998
0.00224753
0.00227509
0.00230271
0.00233038
0.0023581
0.00238581
0.00241345
0.00244095
0.0024682
0.00249512
0.0025216
0.00254754
0.00257287
0.00259749
0.00262136
0.00264441
0.0026666
0.00268792
0.00270833
0.00272784
0.00274644
0.00276416
0.00278098
0.00279691
0.00281193
0.00282602
0.00283914
0.00285125
0.00286232
0.00287229
0.00288114
0.00288885
0.0028954
-4.54391e-05
-4.36425e-05
-4.03582e-05
-3.57683e-05
-2.98562e-05
-2.28135e-05
-1.45879e-05
-5.36899e-06
4.8314e-06
1.56694e-05
2.69243e-05
3.80387e-05
4.86359e-05
5.81163e-05
6.61845e-05
7.24227e-05
7.67486e-05
7.89393e-05
7.90385e-05
7.68814e-05
7.25034e-05
6.57445e-05
5.66939e-05
4.53568e-05
3.20835e-05
1.72342e-05
1.51303e-06
-1.44094e-05
-2.96461e-05
-4.34739e-05
-5.51227e-05
-6.40813e-05
-6.98463e-05
-7.21374e-05
-7.06448e-05
-6.52202e-05
-5.56953e-05
-4.20893e-05
-2.44865e-05
-3.26333e-06
2.1006e-05
4.74244e-05
7.4906e-05
0.000102165
0.000127906
0.000150902
0.000170175
0.000185052
0.000195238
0.000200784
0.000202049
0.000199601
0.000194161
0.000186526
0.000177501
0.000167903
0.000158532
0.00015022
0.000143782
0.000140045
0.000139747
0.000143539
0.000151849
0.000164893
0.000182527
0.000204305
0.000229415
0.000256811
0.000285216
0.000313308
0.000339759
0.000363437
0.000383424
0.00039917
0.000410439
0.00041739
0.00042047
0.000420435
0.000418197
0.000414828
0.000411403
0.00040902
0.000408646
0.000411139
0.000417117
0.000426995
0.000440888
0.000458677
0.000479931
0.000504021
0.000530087
0.000557182
0.000584263
0.00061035
0.000634534
0.000656119
0.000674614
0.000689836
0.000701858
0.000711056
0.000718006
0.000723494
0.000728381
0.00073359
0.000739975
0.000748303
0.000759143
0.000772878
0.000789627
0.000809303
0.000831573
0.000855947
0.000881777
0.000908358
0.00093495
0.000960877
0.000985543
0.00100852
0.00102954
0.00104855
0.00106565