/*--------------------------------*- C++ -*----------------------------------*\
| =========                 |                                                 |
| \\      /  F ield         | OpenFOAM: The Open Source CFD Toolbox           |
|  \\    /   O peration     | Version:  v1912                                 |
|   \\  /    A nd           | Website:  www.openfoam.com                      |
|    \\/     M anipulation  |                                                 |
\*---------------------------------------------------------------------------*/
FoamFile
{
    version     2.0;
    format      ascii;
    class       surfaceScalarField;
    location    "0.9";
    object      phi;
}
// * * * * * * * * * * * * * * * * * * * * * * * * * * * * * * * * * * * * * //

dimensions      [0 3 -1 0 0 0 0];
oriented        oriented;


internalField   nonuniform List<scalar> 
23660
(
3.87646e-06
8.34837e-10
3.87651e-06
-9.75649e-10
3.87645e-06
8.66292e-10
3.87637e-06
-8.72018e-10
3.87631e-06
8.82012e-10
3.87625e-06
-8.3925e-10
3.87624e-06
8.50445e-10
3.87623e-06
-8.33616e-10
3.87625e-06
8.22709e-10
3.87625e-06
-8.21795e-10
3.87626e-06
8.05823e-10
3.87625e-06
-7.97008e-10
3.87625e-06
7.92245e-10
3.87624e-06
-7.75578e-10
3.87623e-06
7.82979e-10
3.87623e-06
-7.58089e-10
3.87622e-06
7.68873e-10
3.87623e-06
-7.44997e-10
3.87623e-06
7.48142e-10
3.87624e-06
-7.35611e-10
3.87625e-06
7.23962e-10
3.87627e-06
-7.27807e-10
3.87628e-06
6.98504e-10
3.87631e-06
-7.20109e-10
3.87632e-06
6.7644e-10
3.87634e-06
-7.11789e-10
3.87635e-06
6.58494e-10
3.87637e-06
-7.06353e-10
3.87637e-06
6.43416e-10
3.87638e-06
-6.938e-10
3.87637e-06
6.33265e-10
3.87637e-06
-6.75156e-10
3.87635e-06
6.2837e-10
3.87634e-06
-6.51587e-10
3.87631e-06
6.27228e-10
3.8763e-06
-6.24576e-10
3.87625e-06
6.27992e-10
3.87623e-06
-5.96596e-10
3.87618e-06
6.2974e-10
3.87615e-06
-5.71789e-10
3.87609e-06
6.31746e-10
3.87607e-06
-5.51126e-10
3.87601e-06
6.31513e-10
3.87598e-06
-5.34174e-10
3.87593e-06
6.26935e-10
3.87591e-06
-5.20784e-10
3.87586e-06
6.18707e-10
3.87585e-06
-5.10731e-10
3.8758e-06
6.0688e-10
3.8758e-06
-5.03285e-10
3.87575e-06
5.92878e-10
3.87575e-06
-4.97452e-10
3.87571e-06
5.77965e-10
3.87571e-06
-4.92409e-10
3.87567e-06
5.62561e-10
3.87567e-06
-4.86572e-10
3.87562e-06
5.47112e-10
3.87562e-06
-4.78848e-10
3.87557e-06
5.38644e-10
3.87556e-06
-4.67601e-10
3.8755e-06
5.34788e-10
3.87549e-06
-4.51882e-10
3.87542e-06
5.34053e-10
3.87541e-06
-4.3443e-10
3.87533e-06
5.35917e-10
3.87531e-06
-4.17442e-10
3.87524e-06
5.39203e-10
3.87522e-06
-4.02283e-10
3.87514e-06
5.39384e-10
3.87512e-06
-3.89394e-10
3.87504e-06
5.36677e-10
3.87502e-06
-3.79328e-10
3.87494e-06
5.31132e-10
3.87493e-06
-3.71827e-10
3.87485e-06
5.23363e-10
3.87484e-06
-3.65928e-10
3.87476e-06
5.14582e-10
3.87475e-06
-3.60546e-10
3.87468e-06
5.05946e-10
3.87466e-06
-3.54674e-10
3.87458e-06
4.98874e-10
3.87457e-06
-3.47016e-10
3.87449e-06
4.94489e-10
3.87447e-06
-3.3712e-10
3.87438e-06
4.92881e-10
3.87436e-06
-3.25595e-10
3.87427e-06
4.93264e-10
3.87425e-06
-3.1324e-10
3.87416e-06
4.94734e-10
3.87413e-06
-3.00975e-10
3.87403e-06
4.96013e-10
3.87401e-06
-2.89668e-10
3.87391e-06
4.9626e-10
3.87388e-06
-2.79886e-10
3.87378e-06
4.95005e-10
3.87375e-06
-2.71668e-10
3.87365e-06
4.92541e-10
3.87362e-06
-2.64518e-10
3.87352e-06
4.89529e-10
3.87349e-06
-2.57792e-10
3.87339e-06
4.86586e-10
3.87336e-06
-2.50909e-10
3.87325e-06
4.84391e-10
3.87323e-06
-2.43288e-10
3.87312e-06
4.83503e-10
3.87309e-06
-2.34655e-10
3.87297e-06
4.84041e-10
3.87294e-06
-2.25161e-10
3.87282e-06
4.85738e-10
3.87279e-06
-2.1518e-10
3.87267e-06
4.8816e-10
3.87263e-06
-2.05168e-10
3.87251e-06
4.9078e-10
3.87247e-06
-1.95535e-10
3.87234e-06
4.93172e-10
3.8723e-06
-1.86517e-10
3.87217e-06
4.95132e-10
3.87213e-06
-1.78139e-10
3.872e-06
4.96762e-10
3.87196e-06
-1.70167e-10
3.87182e-06
4.98411e-10
3.87178e-06
-1.6225e-10
3.87164e-06
5.00407e-10
3.87159e-06
-1.54129e-10
3.87145e-06
5.03004e-10
3.87141e-06
-1.45619e-10
3.87126e-06
5.06382e-10
3.87121e-06
-1.36651e-10
3.87106e-06
5.10547e-10
3.87101e-06
-1.27308e-10
3.87086e-06
5.15454e-10
3.8708e-06
-1.17662e-10
3.87065e-06
5.21008e-10
3.87059e-06
-1.07866e-10
3.87043e-06
5.27023e-10
3.87037e-06
-9.80531e-11
3.8702e-06
5.33369e-10
3.87014e-06
-8.82757e-11
3.86997e-06
5.40022e-10
3.8699e-06
-7.84945e-11
3.86973e-06
5.47071e-10
3.86966e-06
-6.85997e-11
3.86948e-06
5.54682e-10
3.86941e-06
-5.84509e-11
3.86922e-06
5.63064e-10
3.86915e-06
-4.79225e-11
3.86896e-06
5.72419e-10
3.86888e-06
-3.69452e-11
3.86868e-06
5.82903e-10
3.8686e-06
-2.55483e-11
3.8684e-06
5.94547e-10
3.86832e-06
-1.39361e-11
3.8681e-06
6.07132e-10
3.86802e-06
-2.83125e-12
3.8678e-06
6.20131e-10
3.86771e-06
1.40775e-11
3.86748e-06
6.33407e-10
3.86738e-06
3.11167e-11
3.86715e-06
6.47445e-10
3.86705e-06
4.81186e-11
3.8668e-06
6.62663e-10
3.8667e-06
6.56811e-11
3.86644e-06
6.79257e-10
3.86633e-06
8.41159e-11
3.86606e-06
6.97239e-10
3.86595e-06
1.03528e-10
3.86567e-06
7.16351e-10
3.86555e-06
1.23805e-10
3.86526e-06
7.36414e-10
3.86513e-06
1.44943e-10
3.86483e-06
7.57689e-10
3.86469e-06
1.67187e-10
3.86437e-06
7.80672e-10
3.86421e-06
1.90947e-10
3.86388e-06
8.05888e-10
3.86371e-06
2.16719e-10
3.86336e-06
8.33861e-10
3.86318e-06
2.45054e-10
3.86281e-06
8.65139e-10
3.86261e-06
2.76572e-10
3.86222e-06
9.00328e-10
3.86199e-06
3.11981e-10
3.86158e-06
9.40135e-10
3.86133e-06
3.52156e-10
3.86089e-06
9.85527e-10
3.86061e-06
3.9839e-10
3.86013e-06
1.03821e-09
3.85982e-06
4.52986e-10
3.8593e-06
1.10144e-09
3.85894e-06
5.20433e-10
3.85837e-06
1.18273e-09
3.85795e-06
6.12517e-10
3.85728e-06
1.3051e-09
3.85675e-06
7.61421e-10
3.85589e-06
1.51976e-09
3.85515e-06
1.02789e-09
3.85398e-06
1.90199e-09
3.85286e-06
1.50365e-09
3.85116e-06
2.55613e-09
1.95901e-09
3.84989e-06
4.18597e-06
7.29391e-10
4.18586e-06
-8.67154e-10
4.18594e-06
7.7927e-10
4.18583e-06
-7.58985e-10
4.18591e-06
8.06821e-10
4.18579e-06
-7.24902e-10
4.18586e-06
7.81872e-10
4.18576e-06
-7.29738e-10
4.18583e-06
7.4636e-10
4.18573e-06
-7.17874e-10
4.1858e-06
7.32546e-10
4.1857e-06
-6.93444e-10
4.18577e-06
7.21392e-10
4.18567e-06
-6.73492e-10
4.18574e-06
7.0841e-10
4.18565e-06
-6.62439e-10
4.18573e-06
6.8887e-10
4.18564e-06
-6.58176e-10
4.18573e-06
6.61109e-10
4.18565e-06
-6.58665e-10
4.18574e-06
6.30697e-10
4.18568e-06
-6.61486e-10
4.18577e-06
6.01697e-10
4.18572e-06
-6.63143e-10
4.18581e-06
5.78429e-10
4.18576e-06
-6.59537e-10
4.18586e-06
5.61614e-10
4.1858e-06
-6.49857e-10
4.18589e-06
5.52487e-10
4.18583e-06
-6.31123e-10
4.18591e-06
5.51868e-10
4.18584e-06
-6.03373e-10
4.18591e-06
5.59257e-10
4.18583e-06
-5.67759e-10
4.18588e-06
5.72739e-10
4.18578e-06
-5.29304e-10
4.18582e-06
5.90286e-10
4.18572e-06
-4.91338e-10
4.18574e-06
6.07575e-10
4.18563e-06
-4.58017e-10
4.18564e-06
6.19005e-10
4.18552e-06
-4.32102e-10
4.18553e-06
6.21844e-10
4.18541e-06
-4.16032e-10
4.18542e-06
6.14152e-10
4.18531e-06
-4.0934e-10
4.18533e-06
5.98416e-10
4.18523e-06
-4.08744e-10
4.18526e-06
5.78041e-10
4.18517e-06
-4.11019e-10
4.1852e-06
5.54995e-10
4.18512e-06
-4.13764e-10
4.18516e-06
5.35331e-10
4.18509e-06
-4.15671e-10
4.18513e-06
5.20362e-10
4.18506e-06
-4.13455e-10
4.18509e-06
5.10293e-10
4.18502e-06
-4.04147e-10
4.18505e-06
5.07912e-10
4.18497e-06
-3.86635e-10
4.18499e-06
5.13375e-10
4.1849e-06
-3.61966e-10
4.18491e-06
5.23441e-10
4.18481e-06
-3.35449e-10
4.18481e-06
5.35898e-10
4.1847e-06
-3.11095e-10
4.1847e-06
5.46804e-10
4.18459e-06
-2.91859e-10
4.18458e-06
5.50394e-10
4.18447e-06
-2.79195e-10
4.18446e-06
5.46499e-10
4.18435e-06
-2.73153e-10
4.18434e-06
5.36328e-10
4.18424e-06
-2.71024e-10
4.18424e-06
5.23179e-10
4.18415e-06
-2.70256e-10
4.18415e-06
5.11198e-10
4.18406e-06
-2.69094e-10
4.18406e-06
5.02266e-10
4.18397e-06
-2.65212e-10
4.18398e-06
4.97573e-10
4.18388e-06
-2.5576e-10
4.18388e-06
4.98195e-10
4.18378e-06
-2.41321e-10
4.18377e-06
5.03351e-10
4.18367e-06
-2.24472e-10
4.18366e-06
5.11281e-10
4.18355e-06
-2.07105e-10
4.18352e-06
5.19833e-10
4.18341e-06
-1.90929e-10
4.18338e-06
5.25985e-10
4.18327e-06
-1.77376e-10
4.18324e-06
5.2828e-10
4.18313e-06
-1.67344e-10
4.1831e-06
5.26289e-10
4.18298e-06
-1.60303e-10
4.18295e-06
5.22304e-10
4.18285e-06
-1.54971e-10
4.18282e-06
5.1843e-10
4.18271e-06
-1.49772e-10
4.18268e-06
5.15844e-10
4.18257e-06
-1.43184e-10
4.18254e-06
5.15626e-10
4.18243e-06
-1.34038e-10
4.1824e-06
5.18467e-10
4.18228e-06
-1.22436e-10
4.18224e-06
5.23793e-10
4.18213e-06
-1.09243e-10
4.18208e-06
5.30688e-10
4.18196e-06
-9.54049e-11
4.18191e-06
5.37931e-10
4.18179e-06
-8.19222e-11
4.18174e-06
5.44302e-10
4.18161e-06
-6.95728e-11
4.18155e-06
5.49155e-10
4.18143e-06
-5.8744e-11
4.18137e-06
5.52673e-10
4.18124e-06
-4.95134e-11
4.18118e-06
5.55534e-10
4.18105e-06
-4.05651e-11
4.18099e-06
5.58543e-10
4.18086e-06
-3.11404e-11
4.1808e-06
5.62448e-10
4.18067e-06
-2.07847e-11
4.1806e-06
5.67772e-10
4.18046e-06
-9.18067e-12
4.1804e-06
5.74618e-10
4.18026e-06
3.47764e-12
4.18018e-06
5.82955e-10
4.18004e-06
1.64194e-11
4.17996e-06
5.92333e-10
4.17982e-06
3.00989e-11
4.17973e-06
6.02075e-10
4.17958e-06
4.39838e-11
4.1795e-06
6.1185e-10
4.17934e-06
5.77778e-11
4.17925e-06
6.21564e-10
4.17909e-06
7.14273e-11
4.179e-06
6.31365e-10
4.17884e-06
8.51024e-11
4.17874e-06
6.41587e-10
4.17858e-06
9.91151e-11
4.17848e-06
6.52621e-10
4.17831e-06
1.13807e-10
4.1782e-06
6.64786e-10
4.17803e-06
1.29449e-10
4.17792e-06
6.78248e-10
4.17774e-06
1.46171e-10
4.17763e-06
6.9298e-10
4.17744e-06
1.63958e-10
4.17732e-06
7.0887e-10
4.17713e-06
1.82749e-10
4.17701e-06
7.26013e-10
4.1768e-06
2.02661e-10
4.17668e-06
7.45008e-10
4.17647e-06
2.2403e-10
4.17634e-06
7.65871e-10
4.17612e-06
2.46559e-10
4.17598e-06
7.8797e-10
4.17576e-06
2.70059e-10
4.17561e-06
8.11221e-10
4.17538e-06
2.94716e-10
4.17522e-06
8.35928e-10
4.17499e-06
3.20818e-10
4.17482e-06
8.62414e-10
4.17458e-06
3.48674e-10
4.1744e-06
8.91162e-10
4.17415e-06
3.78694e-10
4.17396e-06
9.22513e-10
4.1737e-06
4.11027e-10
4.1735e-06
9.56561e-10
4.17322e-06
4.45871e-10
4.173e-06
9.93626e-10
4.17271e-06
4.83713e-10
4.17248e-06
1.03435e-09
4.17217e-06
5.25289e-10
4.17193e-06
1.07958e-09
4.1716e-06
5.71502e-10
4.17134e-06
1.1303e-09
4.17099e-06
6.23441e-10
4.1707e-06
1.18773e-09
4.17033e-06
6.82536e-10
4.17002e-06
1.25359e-09
4.16962e-06
7.50795e-10
4.16928e-06
1.33016e-09
4.16884e-06
8.3076e-10
4.16846e-06
1.4211e-09
4.16798e-06
9.30452e-10
4.16754e-06
1.54124e-09
4.167e-06
1.06626e-09
4.16647e-06
1.70942e-09
4.16583e-06
1.2552e-09
4.16519e-06
1.94273e-09
4.16443e-06
1.51786e-09
4.16369e-06
2.2606e-09
4.16284e-06
1.87644e-09
4.16207e-06
2.67912e-09
4.16123e-06
2.34204e-09
4.16061e-06
3.17934e-09
2.82074e-09
4.15974e-06
4.52021e-06
5.85618e-10
4.51992e-06
-5.83204e-10
4.52013e-06
5.71163e-10
4.51991e-06
-5.37349e-10
4.52013e-06
5.85591e-10
4.51992e-06
-5.10689e-10
4.52012e-06
5.73262e-10
4.5199e-06
-5.07504e-10
4.5201e-06
5.49824e-10
4.51987e-06
-4.9258e-10
4.52007e-06
5.40502e-10
4.51984e-06
-4.72448e-10
4.52003e-06
5.36094e-10
4.51981e-06
-4.57798e-10
4.52e-06
5.21606e-10
4.51979e-06
-4.53992e-10
4.51999e-06
4.95651e-10
4.51979e-06
-4.60302e-10
4.51999e-06
4.61275e-10
4.5198e-06
-4.72663e-10
4.52001e-06
4.23751e-10
4.51983e-06
-4.85533e-10
4.52005e-06
3.88471e-10
4.51988e-06
-4.93543e-10
4.52009e-06
3.61855e-10
4.51993e-06
-4.92556e-10
4.52014e-06
3.47206e-10
4.51997e-06
-4.79594e-10
4.52018e-06
3.45907e-10
4.52e-06
-4.5459e-10
4.52019e-06
3.58702e-10
4.52001e-06
-4.18286e-10
4.52018e-06
3.82643e-10
4.51999e-06
-3.72295e-10
4.52015e-06
4.13324e-10
4.51994e-06
-3.20779e-10
4.52008e-06
4.46331e-10
4.51986e-06
-2.6948e-10
4.51999e-06
4.76486e-10
4.51976e-06
-2.26595e-10
4.51988e-06
4.96915e-10
4.51965e-06
-1.96939e-10
4.51977e-06
5.02969e-10
4.51954e-06
-1.8431e-10
4.51966e-06
4.93169e-10
4.51943e-06
-1.86907e-10
4.51956e-06
4.70874e-10
4.51935e-06
-1.97482e-10
4.51949e-06
4.42556e-10
4.51929e-06
-2.11323e-10
4.51943e-06
4.12389e-10
4.51924e-06
-2.2336e-10
4.51939e-06
3.87724e-10
4.5192e-06
-2.30033e-10
4.51935e-06
3.71405e-10
4.51916e-06
-2.28374e-10
4.51931e-06
3.65591e-10
4.51912e-06
-2.16255e-10
4.51926e-06
3.72251e-10
4.51906e-06
-1.93576e-10
4.51919e-06
3.90625e-10
4.51899e-06
-1.6302e-10
4.5191e-06
4.13411e-10
4.51889e-06
-1.27895e-10
4.51899e-06
4.36166e-10
4.51877e-06
-9.60679e-11
4.51887e-06
4.53582e-10
4.51865e-06
-7.33161e-11
4.51874e-06
4.60717e-10
4.51852e-06
-6.23498e-11
4.51861e-06
4.55972e-10
4.5184e-06
-6.15612e-11
4.5185e-06
4.42344e-10
4.51829e-06
-6.56696e-11
4.51839e-06
4.25412e-10
4.51819e-06
-7.09042e-11
4.51829e-06
4.1083e-10
4.51809e-06
-7.3426e-11
4.51819e-06
4.01427e-10
4.518e-06
-7.02554e-11
4.5181e-06
3.99981e-10
4.5179e-06
-5.98243e-11
4.51799e-06
4.08367e-10
4.51779e-06
-4.25951e-11
4.51787e-06
4.21868e-10
4.51767e-06
-2.11321e-11
4.51774e-06
4.37516e-10
4.51753e-06
1.45593e-12
4.5176e-06
4.52383e-10
4.51739e-06
2.18669e-11
4.51745e-06
4.63226e-10
4.51724e-06
3.70416e-11
4.5173e-06
4.6808e-10
4.51708e-06
4.61631e-11
4.51714e-06
4.66326e-10
4.51693e-06
5.14155e-11
4.51699e-06
4.61661e-10
4.51678e-06
5.47914e-11
4.51684e-06
4.57561e-10
4.51664e-06
5.85115e-11
4.5167e-06
4.5593e-10
4.51649e-06
6.4656e-11
4.51655e-06
4.58977e-10
4.51634e-06
7.44628e-11
4.51639e-06
4.67295e-10
4.51618e-06
8.80622e-11
4.51622e-06
4.78372e-10
4.51601e-06
1.04472e-10
4.51605e-06
4.90835e-10
4.51583e-06
1.2203e-10
4.51587e-06
5.03139e-10
4.51565e-06
1.38683e-10
4.51568e-06
5.1382e-10
4.51545e-06
1.53137e-10
4.51548e-06
5.21869e-10
4.51526e-06
1.65277e-10
4.51528e-06
5.27255e-10
4.51506e-06
1.75685e-10
4.51508e-06
5.31679e-10
4.51485e-06
1.85505e-10
4.51488e-06
5.36975e-10
4.51465e-06
1.95844e-10
4.51467e-06
5.44116e-10
4.51444e-06
2.07595e-10
4.51445e-06
5.53695e-10
4.51422e-06
2.21255e-10
4.51423e-06
5.65328e-10
4.514e-06
2.36818e-10
4.514e-06
5.78452e-10
4.51377e-06
2.53694e-10
4.51377e-06
5.92535e-10
4.51352e-06
2.7132e-10
4.51352e-06
6.06983e-10
4.51327e-06
2.89014e-10
4.51327e-06
6.21255e-10
4.51302e-06
3.06391e-10
4.513e-06
6.35198e-10
4.51275e-06
3.23469e-10
4.51273e-06
6.49087e-10
4.51248e-06
3.40585e-10
4.51246e-06
6.63488e-10
4.5122e-06
3.58244e-10
4.51217e-06
6.78997e-10
4.51191e-06
3.76964e-10
4.51188e-06
6.96037e-10
4.51161e-06
3.97128e-10
4.51157e-06
7.14783e-10
4.5113e-06
4.18902e-10
4.51126e-06
7.35212e-10
4.51098e-06
4.42273e-10
4.51093e-06
7.5729e-10
4.51065e-06
4.67209e-10
4.51059e-06
7.81166e-10
4.5103e-06
4.93733e-10
4.51024e-06
8.06795e-10
4.50994e-06
5.21696e-10
4.50987e-06
8.34097e-10
4.50957e-06
5.51309e-10
4.50949e-06
8.63037e-10
4.50918e-06
5.82584e-10
4.5091e-06
8.93635e-10
4.50878e-06
6.15578e-10
4.50869e-06
9.26234e-10
4.50836e-06
6.50648e-10
4.50826e-06
9.61343e-10
4.50792e-06
6.88489e-10
4.50781e-06
9.99566e-10
4.50746e-06
7.29767e-10
4.50734e-06
1.04143e-09
4.50698e-06
7.74698e-10
4.50684e-06
1.0873e-09
4.50647e-06
8.23549e-10
4.50632e-06
1.13761e-09
4.50593e-06
8.7693e-10
4.50577e-06
1.19312e-09
4.50536e-06
9.35796e-10
4.50518e-06
1.25491e-09
4.50475e-06
1.00141e-09
4.50456e-06
1.32443e-09
4.50411e-06
1.07543e-09
4.50389e-06
1.40358e-09
4.50342e-06
1.16016e-09
4.50317e-06
1.49529e-09
4.50267e-06
1.25939e-09
4.50239e-06
1.60481e-09
4.50184e-06
1.38008e-09
4.50152e-06
1.74125e-09
4.50092e-06
1.53237e-09
4.50055e-06
1.9152e-09
4.49989e-06
1.72614e-09
4.49946e-06
2.13546e-09
4.49874e-06
1.97014e-09
4.49828e-06
2.41008e-09
4.49752e-06
2.2731e-09
4.49704e-06
2.74641e-09
4.49627e-06
2.64059e-09
4.49581e-06
3.14347e-09
4.49509e-06
3.05636e-09
4.49479e-06
3.48565e-09
3.53645e-09
4.49407e-06
4.88111e-06
4.27848e-10
4.88081e-06
-2.84262e-10
4.88097e-06
4.05586e-10
4.88074e-06
-3.08084e-10
4.88096e-06
3.65539e-10
4.88077e-06
-3.15988e-10
4.88098e-06
3.58897e-10
4.88077e-06
-2.97254e-10
4.88097e-06
3.55873e-10
4.88075e-06
-2.77285e-10
4.88093e-06
3.58201e-10
4.88072e-06
-2.58521e-10
4.8809e-06
3.56977e-10
4.88069e-06
-2.48076e-10
4.88087e-06
3.41242e-10
4.88067e-06
-2.54168e-10
4.88086e-06
3.09607e-10
4.88067e-06
-2.73555e-10
4.88086e-06
2.68586e-10
4.88069e-06
-2.99634e-10
4.88089e-06
2.24982e-10
4.88073e-06
-3.25244e-10
4.88093e-06
1.8634e-10
4.88078e-06
-3.4285e-10
4.88098e-06
1.60209e-10
4.88083e-06
-3.45988e-10
4.88103e-06
1.51195e-10
4.88088e-06
-3.31295e-10
4.88107e-06
1.60711e-10
4.88091e-06
-2.98847e-10
4.88108e-06
1.8811e-10
4.88091e-06
-2.51096e-10
4.88107e-06
2.28817e-10
4.88089e-06
-1.92084e-10
4.88102e-06
2.78236e-10
4.88083e-06
-1.28916e-10
4.88095e-06
3.30774e-10
4.88074e-06
-6.7983e-11
4.88084e-06
3.77322e-10
4.88064e-06
-1.92926e-11
4.88073e-06
4.07867e-10
4.88052e-06
1.15459e-11
4.8806e-06
4.1616e-10
4.8804e-06
2.10785e-11
4.88049e-06
4.00775e-10
4.88029e-06
1.01665e-11
4.88039e-06
3.71025e-10
4.88021e-06
-1.24392e-11
4.88032e-06
3.35437e-10
4.88014e-06
-3.95266e-11
4.88026e-06
3.00656e-10
4.8801e-06
-6.27258e-11
4.88021e-06
2.73693e-10
4.88006e-06
-7.60603e-11
4.88017e-06
2.58986e-10
4.88001e-06
-7.57208e-11
4.88012e-06
2.59566e-10
4.87996e-06
-6.01848e-11
4.88006e-06
2.76967e-10
4.8799e-06
-3.04131e-11
4.87998e-06
3.06615e-10
4.87981e-06
7.67653e-12
4.87988e-06
3.42269e-10
4.8797e-06
5.01732e-11
4.87976e-06
3.76363e-10
4.87958e-06
8.74007e-11
4.87963e-06
4.01024e-10
4.87945e-06
1.12193e-10
4.8795e-06
4.10668e-10
4.87931e-06
1.21352e-10
4.87936e-06
4.04119e-10
4.87919e-06
1.1637e-10
4.87924e-06
3.8869e-10
4.87907e-06
1.04946e-10
4.87913e-06
3.69768e-10
4.87896e-06
9.2753e-11
4.87902e-06
3.53939e-10
4.87886e-06
8.56331e-11
4.87892e-06
3.46061e-10
4.87876e-06
8.74525e-11
4.87881e-06
3.49369e-10
4.87865e-06
1.00407e-10
4.87869e-06
3.64212e-10
4.87853e-06
1.22325e-10
4.87856e-06
3.84964e-10
4.87839e-06
1.49006e-10
4.87842e-06
4.08452e-10
4.87825e-06
1.76347e-10
4.87827e-06
4.30135e-10
4.87809e-06
1.99839e-10
4.87811e-06
4.45854e-10
4.87793e-06
2.16181e-10
4.87795e-06
4.52968e-10
4.87777e-06
2.23791e-10
4.87778e-06
4.52745e-10
4.87761e-06
2.25922e-10
4.87762e-06
4.49497e-10
4.87745e-06
2.26262e-10
4.87746e-06
4.46406e-10
4.87729e-06
2.28049e-10
4.8773e-06
4.4665e-10
4.87713e-06
2.34178e-10
4.87714e-06
4.52714e-10
4.87696e-06
2.46429e-10
4.87697e-06
4.65089e-10
4.87679e-06
2.63624e-10
4.87679e-06
4.81203e-10
4.87661e-06
2.83784e-10
4.8766e-06
4.99298e-10
4.87642e-06
3.04842e-10
4.8764e-06
5.16979e-10
4.87622e-06
3.24412e-10
4.8762e-06
5.32125e-10
4.87601e-06
3.40833e-10
4.87599e-06
5.43695e-10
4.8758e-06
3.53708e-10
4.87578e-06
5.52236e-10
4.87559e-06
3.64193e-10
4.87556e-06
5.59752e-10
4.87537e-06
3.74379e-10
4.87534e-06
5.68002e-10
4.87515e-06
3.85902e-10
4.87512e-06
5.78373e-10
4.87492e-06
3.99889e-10
4.87488e-06
5.91702e-10
4.87469e-06
4.16586e-10
4.87465e-06
6.07755e-10
4.87445e-06
4.3564e-10
4.8744e-06
6.2587e-10
4.8742e-06
4.56373e-10
4.87415e-06
6.45194e-10
4.87394e-06
4.77829e-10
4.87388e-06
6.64821e-10
4.87367e-06
4.9918e-10
4.87361e-06
6.84086e-10
4.87339e-06
5.19974e-10
4.87333e-06
7.02834e-10
4.87311e-06
5.40302e-10
4.87304e-06
7.21448e-10
4.87282e-06
5.60714e-10
4.87274e-06
7.40647e-10
4.87252e-06
5.81965e-10
4.87243e-06
7.61178e-10
4.87221e-06
6.04742e-10
4.87212e-06
7.83593e-10
4.87189e-06
6.29489e-10
4.87179e-06
8.08172e-10
4.87156e-06
6.56376e-10
4.87146e-06
8.34961e-10
4.87121e-06
6.85383e-10
4.87111e-06
8.63902e-10
4.87086e-06
7.16409e-10
4.87074e-06
8.94878e-10
4.87049e-06
7.49283e-10
4.87037e-06
9.27685e-10
4.87011e-06
7.83872e-10
4.86998e-06
9.62314e-10
4.86971e-06
8.203e-10
4.86957e-06
9.9896e-10
4.8693e-06
8.58797e-10
4.86915e-06
1.03788e-09
4.86887e-06
8.99686e-10
4.86871e-06
1.0795e-09
4.86842e-06
9.43504e-10
4.86826e-06
1.12448e-09
4.86796e-06
9.90948e-10
4.86778e-06
1.17352e-09
4.86747e-06
1.04267e-09
4.86728e-06
1.2272e-09
4.86696e-06
1.09916e-09
4.86676e-06
1.286e-09
4.86642e-06
1.16097e-09
4.86621e-06
1.35054e-09
4.86586e-06
1.22886e-09
4.86563e-06
1.42177e-09
4.86526e-06
1.30398e-09
4.86501e-06
1.50104e-09
4.86463e-06
1.38793e-09
4.86436e-06
1.59031e-09
4.86395e-06
1.48305e-09
4.86367e-06
1.69247e-09
4.86323e-06
1.59286e-09
4.86292e-06
1.81178e-09
4.86245e-06
1.72229e-09
4.8621e-06
1.95381e-09
4.86161e-06
1.87712e-09
4.86122e-06
2.12414e-09
4.86069e-06
2.06261e-09
4.86028e-06
2.32753e-09
4.85972e-06
2.28338e-09
4.85929e-06
2.56832e-09
4.85872e-06
2.54378e-09
4.85828e-06
2.85023e-09
4.8577e-06
2.84663e-09
4.85728e-06
3.17403e-09
4.85673e-06
3.18904e-09
4.85634e-06
3.5275e-09
4.85589e-06
3.51561e-09
4.8555e-06
3.86819e-09
4.03256e-09
4.85501e-06
5.27078e-06
2.89798e-10
5.27058e-06
-7.54367e-11
5.27068e-06
3.05505e-10
5.27048e-06
-1.1177e-10
5.27061e-06
2.40096e-10
5.27045e-06
-1.61025e-10
5.2706e-06
2.10026e-10
5.27045e-06
-1.52577e-10
5.27059e-06
2.21539e-10
5.27044e-06
-1.29099e-10
5.27056e-06
2.3608e-10
5.27041e-06
-1.06869e-10
5.27053e-06
2.38892e-10
5.27038e-06
-1.01329e-10
5.2705e-06
2.20744e-10
5.27037e-06
-1.18399e-10
5.27049e-06
1.82416e-10
5.27037e-06
-1.51523e-10
5.27051e-06
1.34632e-10
5.2704e-06
-1.92059e-10
5.27054e-06
8.50397e-11
5.27044e-06
-2.30418e-10
5.27059e-06
4.26557e-11
5.2705e-06
-2.56544e-10
5.27064e-06
1.76166e-11
5.27056e-06
-2.61887e-10
5.2707e-06
1.48497e-11
5.27061e-06
-2.42987e-10
5.27073e-06
3.56286e-11
5.27063e-06
-2.004e-10
5.27074e-06
7.87261e-11
5.27063e-06
-1.39922e-10
5.27072e-06
1.38637e-10
5.2706e-06
-6.76579e-11
5.27067e-06
2.08656e-10
5.27053e-06
8.68105e-12
5.27058e-06
2.78956e-10
5.27043e-06
8.26063e-11
5.27047e-06
3.3762e-10
5.27031e-06
1.39125e-10
5.27035e-06
3.7503e-10
5.27019e-06
1.70211e-10
5.27022e-06
3.84748e-10
5.27007e-06
1.72728e-10
5.2701e-06
3.66264e-10
5.26996e-06
1.50566e-10
5.27e-06
3.30308e-10
5.26987e-06
1.15348e-10
5.26992e-06
2.86316e-10
5.26981e-06
7.69028e-11
5.26986e-06
2.44713e-10
5.26975e-06
4.52633e-11
5.26981e-06
2.14321e-10
5.26971e-06
2.76538e-11
5.26977e-06
2.01237e-10
5.26966e-06
2.82186e-11
5.26971e-06
2.09383e-10
5.2696e-06
4.9359e-11
5.26964e-06
2.37045e-10
5.26953e-06
8.72268e-11
5.26956e-06
2.77636e-10
5.26943e-06
1.35704e-10
5.26945e-06
3.24599e-10
5.26931e-06
1.86149e-10
5.26932e-06
3.68525e-10
5.26918e-06
2.28405e-10
5.26918e-06
3.99586e-10
5.26904e-06
2.5425e-10
5.26904e-06
4.11068e-10
5.2689e-06
2.59751e-10
5.2689e-06
4.03865e-10
5.26876e-06
2.49565e-10
5.26877e-06
3.85916e-10
5.26864e-06
2.31767e-10
5.26865e-06
3.64134e-10
5.26852e-06
2.14037e-10
5.26853e-06
3.46628e-10
5.26841e-06
2.03871e-10
5.26842e-06
3.39903e-10
5.2683e-06
2.06387e-10
5.2683e-06
3.47778e-10
5.26818e-06
2.2338e-10
5.26817e-06
3.68508e-10
5.26805e-06
2.50305e-10
5.26803e-06
3.96743e-10
5.2679e-06
2.82767e-10
5.26788e-06
4.27735e-10
5.26774e-06
3.15103e-10
5.26772e-06
4.55597e-10
5.26758e-06
3.41745e-10
5.26755e-06
4.75358e-10
5.2674e-06
3.58916e-10
5.26737e-06
4.84311e-10
5.26723e-06
3.6549e-10
5.2672e-06
4.85259e-10
5.26706e-06
3.65876e-10
5.26703e-06
4.82379e-10
5.26689e-06
3.64412e-10
5.26685e-06
4.79821e-10
5.26672e-06
3.65381e-10
5.26668e-06
4.81811e-10
5.26654e-06
3.72451e-10
5.2665e-06
4.91211e-10
5.26636e-06
3.87346e-10
5.26632e-06
5.08004e-10
5.26618e-06
4.0808e-10
5.26613e-06
5.29442e-10
5.26598e-06
4.32335e-10
5.26593e-06
5.53035e-10
5.26577e-06
4.57276e-10
5.26571e-06
5.75732e-10
5.26556e-06
4.80008e-10
5.2655e-06
5.94989e-10
5.26534e-06
4.98664e-10
5.26527e-06
6.09748e-10
5.26511e-06
5.12977e-10
5.26504e-06
6.21021e-10
5.26488e-06
5.2457e-10
5.26481e-06
6.31132e-10
5.26465e-06
5.36019e-10
5.26458e-06
6.42151e-10
5.26441e-06
5.4935e-10
5.26434e-06
6.55872e-10
5.26417e-06
5.6585e-10
5.26409e-06
6.7321e-10
5.26392e-06
5.85792e-10
5.26383e-06
6.93877e-10
5.26366e-06
6.08736e-10
5.26357e-06
7.17074e-10
5.26339e-06
6.3367e-10
5.26329e-06
7.41633e-10
5.26311e-06
6.59347e-10
5.26301e-06
7.66373e-10
5.26283e-06
6.84743e-10
5.26272e-06
7.90526e-10
5.26253e-06
7.09377e-10
5.26242e-06
8.13969e-10
5.26223e-06
7.33437e-10
5.26211e-06
8.37217e-10
5.26191e-06
7.57657e-10
5.26179e-06
8.61166e-10
5.26159e-06
7.82992e-10
5.26147e-06
8.86739e-10
5.26126e-06
8.1028e-10
5.26113e-06
9.14621e-10
5.26092e-06
8.40059e-10
5.26078e-06
9.45165e-10
5.26057e-06
8.7252e-10
5.26042e-06
9.78417e-10
5.2602e-06
9.07585e-10
5.26005e-06
1.0142e-09
5.25982e-06
9.45001e-10
5.25966e-06
1.05221e-09
5.25943e-06
9.84496e-10
5.25926e-06
1.09226e-09
5.25902e-06
1.02596e-09
5.25885e-06
1.13435e-09
5.2586e-06
1.06955e-09
5.25842e-06
1.17878e-09
5.25816e-06
1.11565e-09
5.25798e-06
1.22601e-09
5.25771e-06
1.16482e-09
5.25751e-06
1.27667e-09
5.25724e-06
1.21771e-09
5.25703e-06
1.33145e-09
5.25675e-06
1.27503e-09
5.25653e-06
1.39107e-09
5.25624e-06
1.33747e-09
5.25601e-06
1.45615e-09
5.2557e-06
1.40566e-09
5.25546e-06
1.52737e-09
5.25514e-06
1.48031e-09
5.25488e-06
1.60553e-09
5.25455e-06
1.56238e-09
5.25428e-06
1.69177e-09
5.25393e-06
1.65322e-09
5.25365e-06
1.78773e-09
5.25328e-06
1.75479e-09
5.25297e-06
1.89573e-09
5.25259e-06
1.86978e-09
5.25226e-06
2.01878e-09
5.25185e-06
2.00143e-09
5.2515e-06
2.16028e-09
5.25107e-06
2.15311e-09
5.2507e-06
2.32343e-09
5.25025e-06
2.32785e-09
5.24986e-06
2.511e-09
5.2494e-06
2.52827e-09
5.249e-06
2.72545e-09
5.24853e-06
2.75673e-09
5.24813e-06
2.9688e-09
5.24766e-06
3.01473e-09
5.24727e-06
3.24163e-09
5.24681e-06
3.30132e-09
5.24644e-06
3.53999e-09
5.24603e-06
3.60486e-09
5.24573e-06
3.82911e-09
5.24533e-06
3.91011e-09
5.24502e-06
4.18078e-09
4.37814e-09
5.24467e-06
5.69156e-06
1.88741e-10
5.69146e-06
2.94998e-11
5.69151e-06
2.55594e-10
5.69137e-06
2.17974e-11
5.69141e-06
1.98264e-10
5.69128e-06
-3.12651e-11
5.69134e-06
1.53314e-10
5.69124e-06
-5.22045e-11
5.69131e-06
1.55777e-10
5.69121e-06
-3.61365e-11
5.69128e-06
1.70511e-10
5.69119e-06
-1.94238e-11
5.69126e-06
1.74898e-10
5.69117e-06
-1.83727e-11
5.69124e-06
1.54417e-10
5.69116e-06
-4.29069e-11
5.69124e-06
1.07468e-10
5.69118e-06
-8.90622e-11
5.69126e-06
5.22273e-11
5.69121e-06
-1.43184e-10
5.6913e-06
-3.9248e-12
5.69126e-06
-1.91876e-10
5.69135e-06
-5.2793e-11
5.69132e-06
-2.22278e-10
5.69142e-06
-7.76231e-11
5.69138e-06
-2.26861e-10
5.69147e-06
-7.34874e-11
5.69143e-06
-2.01787e-10
5.6915e-06
-3.9578e-11
5.69145e-06
-1.4791e-10
5.69151e-06
2.02116e-11
5.69144e-06
-7.26381e-11
5.69148e-06
9.99126e-11
5.6914e-06
1.60251e-11
5.69142e-06
1.88951e-10
5.69132e-06
1.10225e-10
5.69132e-06
2.75282e-10
5.69121e-06
1.95054e-10
5.6912e-06
3.46111e-10
5.69108e-06
2.57437e-10
5.69107e-06
3.88927e-10
5.69095e-06
2.87926e-10
5.69094e-06
3.97603e-10
5.69082e-06
2.84011e-10
5.69082e-06
3.7407e-10
5.69071e-06
2.5184e-10
5.69072e-06
3.29798e-10
5.69063e-06
2.04724e-10
5.69064e-06
2.76754e-10
5.69056e-06
1.55509e-10
5.69057e-06
2.28245e-10
5.6905e-06
1.16407e-10
5.69052e-06
1.95042e-10
5.69045e-06
9.62558e-11
5.69047e-06
1.84111e-10
5.6904e-06
1.00215e-10
5.69041e-06
1.99224e-10
5.69033e-06
1.2889e-10
5.69033e-06
2.36264e-10
5.69024e-06
1.76393e-10
5.69023e-06
2.8862e-10
5.69013e-06
2.35148e-10
5.69011e-06
3.46861e-10
5.69e-06
2.93925e-10
5.68997e-06
3.99173e-10
5.68986e-06
3.40991e-10
5.68982e-06
4.347e-10
5.68971e-06
3.67473e-10
5.68967e-06
4.46694e-10
5.68956e-06
3.70036e-10
5.68953e-06
4.38179e-10
5.68942e-06
3.55535e-10
5.68939e-06
4.16672e-10
5.68929e-06
3.32362e-10
5.68926e-06
3.91416e-10
5.68917e-06
3.10393e-10
5.68914e-06
3.72277e-10
5.68905e-06
2.98673e-10
5.68902e-06
3.67025e-10
5.68892e-06
3.03319e-10
5.68889e-06
3.79597e-10
5.68879e-06
3.24593e-10
5.68875e-06
4.06222e-10
5.68864e-06
3.57395e-10
5.6886e-06
4.41874e-10
5.68849e-06
3.962e-10
5.68843e-06
4.79933e-10
5.68832e-06
4.33771e-10
5.68826e-06
5.13202e-10
5.68814e-06
4.63542e-10
5.68808e-06
5.36113e-10
5.68795e-06
4.81474e-10
5.68789e-06
5.46645e-10
5.68777e-06
4.87792e-10
5.68771e-06
5.48196e-10
5.68758e-06
4.87233e-10
5.68752e-06
5.45213e-10
5.6874e-06
4.84804e-10
5.68734e-06
5.43135e-10
5.68722e-06
4.85926e-10
5.68715e-06
5.46994e-10
5.68703e-06
4.94808e-10
5.68696e-06
5.59815e-10
5.68684e-06
5.12707e-10
5.68676e-06
5.80938e-10
5.68663e-06
5.37543e-10
5.68655e-06
6.07643e-10
5.68642e-06
5.6642e-10
5.68634e-06
6.36524e-10
5.6862e-06
5.956e-10
5.68611e-06
6.63865e-10
5.68597e-06
6.21705e-10
5.68588e-06
6.869e-10
5.68573e-06
6.42819e-10
5.68564e-06
7.04731e-10
5.68549e-06
6.59062e-10
5.68539e-06
7.18619e-10
5.68525e-06
6.72442e-10
5.68515e-06
7.31143e-10
5.685e-06
6.85747e-10
5.68489e-06
7.44942e-10
5.68474e-06
7.01367e-10
5.68464e-06
7.62024e-10
5.68448e-06
7.20865e-10
5.68437e-06
7.8332e-10
5.68421e-06
7.4461e-10
5.6841e-06
8.08625e-10
5.68393e-06
7.71934e-10
5.68381e-06
8.36893e-10
5.68365e-06
8.01495e-10
5.68352e-06
8.66622e-10
5.68335e-06
8.31759e-10
5.68322e-06
8.96392e-10
5.68304e-06
8.61535e-10
5.68291e-06
9.25345e-10
5.68273e-06
8.90341e-10
5.68259e-06
9.53412e-10
5.6824e-06
9.18493e-10
5.68226e-06
9.81254e-10
5.68207e-06
9.46906e-10
5.68192e-06
1.00995e-09
5.68173e-06
9.76716e-10
5.68157e-06
1.0406e-09
5.68137e-06
1.00891e-09
5.68121e-06
1.07401e-09
5.68101e-06
1.04411e-09
5.68084e-06
1.11058e-09
5.68063e-06
1.08249e-09
5.68046e-06
1.1503e-09
5.68025e-06
1.12387e-09
5.68007e-06
1.19285e-09
5.67984e-06
1.16787e-09
5.67966e-06
1.23785e-09
5.67943e-06
1.21417e-09
5.67924e-06
1.28509e-09
5.679e-06
1.26268e-09
5.6788e-06
1.33462e-09
5.67856e-06
1.31361e-09
5.67835e-06
1.38682e-09
5.6781e-06
1.36748e-09
5.67788e-06
1.44229e-09
5.67762e-06
1.42497e-09
5.67739e-06
1.5018e-09
5.67712e-06
1.48684e-09
5.67689e-06
1.56607e-09
5.67661e-06
1.55384e-09
5.67637e-06
1.63585e-09
5.67608e-06
1.62666e-09
5.67582e-06
1.71183e-09
5.67552e-06
1.70603e-09
5.67525e-06
1.79475e-09
5.67494e-06
1.79276e-09
5.67466e-06
1.88556e-09
5.67434e-06
1.88792e-09
5.67404e-06
1.98548e-09
5.6737e-06
1.99293e-09
5.67339e-06
2.09614e-09
5.67304e-06
2.1096e-09
5.67272e-06
2.2195e-09
5.67235e-06
2.23999e-09
5.67201e-06
2.35764e-09
5.67162e-06
2.38614e-09
5.67127e-06
2.5125e-09
5.67087e-06
2.54988e-09
5.67051e-06
2.68578e-09
5.67011e-06
2.73278e-09
5.66974e-06
2.87892e-09
5.66933e-06
2.93614e-09
5.66896e-06
3.09296e-09
5.66856e-06
3.16067e-09
5.6682e-06
3.32806e-09
5.66781e-06
3.40568e-09
5.66747e-06
3.58217e-09
5.6671e-06
3.66651e-09
5.6668e-06
3.84183e-09
5.66648e-06
3.92105e-09
5.6662e-06
4.11264e-09
5.66589e-06
4.21844e-09
5.66565e-06
4.42618e-09
4.62736e-09
5.6654e-06
6.14594e-06
1.23056e-10
6.1459e-06
7.01823e-11
6.14592e-06
2.25962e-10
6.14584e-06
1.03125e-10
6.14584e-06
2.03873e-10
6.14574e-06
6.70755e-11
6.14573e-06
1.63545e-10
6.14564e-06
4.11872e-11
6.14565e-06
1.44885e-10
6.14558e-06
3.52119e-11
6.1456e-06
1.44598e-10
6.14554e-06
3.78146e-11
6.14558e-06
1.41169e-10
6.14553e-06