/*--------------------------------*- C++ -*----------------------------------*\
| =========                 |                                                 |
| \\      /  F ield         | OpenFOAM: The Open Source CFD Toolbox           |
|  \\    /   O peration     | Version:  v1912                                 |
|   \\  /    A nd           | Website:  www.openfoam.com                      |
|    \\/     M anipulation  |                                                 |
\*---------------------------------------------------------------------------*/
FoamFile
{
    version     2.0;
    format      ascii;
    class       volVectorField;
    location    "0.9";
    object      U;
}
// * * * * * * * * * * * * * * * * * * * * * * * * * * * * * * * * * * * * * //

dimensions      [0 1 -1 0 0 0 0];


internalField   nonuniform List<vector> 
12000
(
(0.999433 8.73077e-05 0)
(1.00058 -9.42383e-05 0)
(0.999451 8.62302e-05 0)
(1.00059 -9.14135e-05 0)
(0.999455 8.8001e-05 0)
(1.00059 -8.90955e-05 0)
(0.999447 8.81978e-05 0)
(1.00057 -8.82137e-05 0)
(0.999434 8.75088e-05 0)
(1.00056 -8.77156e-05 0)
(0.999419 8.68003e-05 0)
(1.00054 -8.71471e-05 0)
(0.999406 8.61808e-05 0)
(1.00053 -8.65462e-05 0)
(0.999398 8.55744e-05 0)
(1.00052 -8.60083e-05 0)
(0.999394 8.49063e-05 0)
(1.00052 -8.55925e-05 0)
(0.999393 8.41428e-05 0)
(1.00052 -8.53088e-05 0)
(0.999395 8.3292e-05 0)
(1.00052 -8.51129e-05 0)
(0.9994 8.24261e-05 0)
(1.00053 -8.49088e-05 0)
(0.999407 8.16319e-05 0)
(1.00054 -8.46244e-05 0)
(0.999417 8.09737e-05 0)
(1.00054 -8.42133e-05 0)
(0.999426 8.04707e-05 0)
(1.00055 -8.36651e-05 0)
(0.999433 8.01677e-05 0)
(1.00056 -8.29255e-05 0)
(0.999436 8.01147e-05 0)
(1.00056 -8.19584e-05 0)
(0.999435 8.0307e-05 0)
(1.00055 -8.08088e-05 0)
(0.999428 8.06632e-05 0)
(1.00055 -7.95835e-05 0)
(0.999415 8.10591e-05 0)
(1.00053 -7.84046e-05 0)
(0.999396 8.13701e-05 0)
(1.00051 -7.73937e-05 0)
(0.99937 8.14825e-05 0)
(1.00048 -7.66435e-05 0)
(0.999341 8.13741e-05 0)
(1.00045 -7.61193e-05 0)
(0.999312 8.1118e-05 0)
(1.00043 -7.57136e-05 0)
(0.999287 8.07855e-05 0)
(1.00041 -7.53838e-05 0)
(0.999267 8.04283e-05 0)
(1.00039 -7.50957e-05 0)
(0.999252 8.00773e-05 0)
(1.00038 -7.4812e-05 0)
(0.99924 7.97721e-05 0)
(1.00037 -7.4471e-05 0)
(0.999231 7.95794e-05 0)
(1.00037 -7.4003e-05 0)
(0.999222 7.95758e-05 0)
(1.00036 -7.33347e-05 0)
(0.999212 7.98162e-05 0)
(1.00035 -7.24565e-05 0)
(0.9992 8.02644e-05 0)
(1.00034 -7.14514e-05 0)
(0.999182 8.08081e-05 0)
(1.00032 -7.04442e-05 0)
(0.999158 8.13104e-05 0)
(1.0003 -6.95719e-05 0)
(0.999127 8.16648e-05 0)
(1.00027 -6.88962e-05 0)
(0.999093 8.18515e-05 0)
(1.00024 -6.84033e-05 0)
(0.999058 8.19111e-05 0)
(1.00021 -6.80298e-05 0)
(0.999024 8.19183e-05 0)
(1.00018 -6.77039e-05 0)
(0.998994 8.19397e-05 0)
(1.00016 -6.73669e-05 0)
(0.998969 8.2032e-05 0)
(1.00014 -6.69618e-05 0)
(0.998946 8.2253e-05 0)
(1.00012 -6.64295e-05 0)
(0.998924 8.26546e-05 0)
(1.00011 -6.57375e-05 0)
(0.998901 8.32441e-05 0)
(1.00009 -6.49099e-05 0)
(0.998876 8.39711e-05 0)
(1.00007 -6.40164e-05 0)
(0.998846 8.47594e-05 0)
(1.00004 -6.31332e-05 0)
(0.998811 8.55385e-05 0)
(1.00001 -6.2321e-05 0)
(0.998773 8.62627e-05 0)
(0.99998 -6.16109e-05 0)
(0.998731 8.69181e-05 0)
(0.999946 -6.09994e-05 0)
(0.998689 8.75291e-05 0)
(0.999911 -6.04463e-05 0)
(0.998647 8.81505e-05 0)
(0.999879 -5.9892e-05 0)
(0.998608 8.88405e-05 0)
(0.999849 -5.92849e-05 0)
(0.99857 8.96442e-05 0)
(0.999821 -5.85867e-05 0)
(0.998534 9.05935e-05 0)
(0.999793 -5.77775e-05 0)
(0.998497 9.16949e-05 0)
(0.999765 -5.68681e-05 0)
(0.998458 9.29242e-05 0)
(0.999734 -5.58939e-05 0)
(0.998415 9.42426e-05 0)
(0.9997 -5.48955e-05 0)
(0.998369 9.56132e-05 0)
(0.999663 -5.39062e-05 0)
(0.998319 9.70106e-05 0)
(0.999623 -5.29446e-05 0)
(0.998267 9.84275e-05 0)
(0.999582 -5.20093e-05 0)
(0.998214 9.98769e-05 0)
(0.99954 -5.10788e-05 0)
(0.99816 0.00010139 0)
(0.999499 -5.01172e-05 0)
(0.998107 0.000103006 0)
(0.999459 -4.90906e-05 0)
(0.998053 0.000104756 0)
(0.999418 -4.7976e-05 0)
(0.997999 0.000106657 0)
(0.999378 -4.67635e-05 0)
(0.997943 0.000108715 0)
(0.999336 -4.54566e-05 0)
(0.997885 0.000110923 0)
(0.999291 -4.4066e-05 0)
(0.997824 0.000113271 0)
(0.999245 -4.26025e-05 0)
(0.997759 0.000115753 0)
(0.999196 -4.10739e-05 0)
(0.997692 0.000118366 0)
(0.999144 -3.948e-05 0)
(0.997622 0.000121119 0)
(0.999091 -3.78094e-05 0)
(0.99755 0.000124031 0)
(0.999037 -3.6041e-05 0)
(0.997476 0.00012713 0)
(0.998982 -3.41465e-05 0)
(0.997401 0.000130448 0)
(0.998926 -3.20958e-05 0)
(0.997323 0.000134019 0)
(0.998868 -2.98596e-05 0)
(0.997243 0.000137874 0)
(0.998809 -2.74122e-05 0)
(0.99716 0.00014204 0)
(0.998747 -2.47358e-05 0)
(0.997073 0.000146529 0)
(0.998683 -2.1832e-05 0)
(0.996983 0.000151331 0)
(0.998615 -1.87341e-05 0)
(0.996889 0.000156406 0)
(0.998545 -1.54694e-05 0)
(0.99679 0.000161755 0)
(0.998472 -1.20182e-05 0)
(0.996687 0.000167422 0)
(0.998396 -8.3285e-06 0)
(0.996581 0.000173471 0)
(0.998316 -4.34277e-06 0)
(0.996469 0.000179958 0)
(0.998233 -1.86243e-08 0)
(0.996353 0.000186918 0)
(0.998147 4.65156e-06 0)
(0.996231 0.000194348 0)
(0.998056 9.66178e-06 0)
(0.996103 0.000202262 0)
(0.99796 1.5039e-05 0)
(0.995968 0.000210717 0)
(0.997858 2.08577e-05 0)
(0.995825 0.000219815 0)
(0.997749 2.72317e-05 0)
(0.995672 0.000229696 0)
(0.997631 3.43046e-05 0)
(0.995509 0.000240523 0)
(0.997505 4.22477e-05 0)
(0.995334 0.000252494 0)
(0.997368 5.12662e-05 0)
(0.995146 0.000265846 0)
(0.997217 6.16158e-05 0)
(0.994941 0.000280884 0)
(0.997052 7.36447e-05 0)
(0.994716 0.000298047 0)
(0.996866 8.79042e-05 0)
(0.994466 0.000318086 0)
(0.996654 0.000105404 0)
(0.994184 0.000342442 0)
(0.996408 0.000128229 0)
(0.993857 0.000374271 0)
(0.996112 0.000161194 0)
(0.993471 0.000421005 0)
(0.995748 0.000215487 0)
(0.993001 0.00049909 0)
(0.995292 0.000314188 0)
(0.992423 0.000639533 0)
(0.994725 0.000496509 0)
(0.999746 8.40987e-05 0)
(1.00027 -9.85099e-05 0)
(0.999771 8.34143e-05 0)
(1.00027 -9.29584e-05 0)
(0.999778 8.87842e-05 0)
(1.00027 -8.86061e-05 0)
(0.999773 9.0465e-05 0)
(1.00025 -8.76688e-05 0)
(0.999762 9.00807e-05 0)
(1.00023 -8.75456e-05 0)
(0.99975 8.96481e-05 0)
(1.00021 -8.72579e-05 0)
(0.999741 8.93618e-05 0)
(1.0002 -8.69887e-05 0)
(0.999736 8.89274e-05 0)
(1.00018 -8.70099e-05 0)
(0.999736 8.81582e-05 0)
(1.00018 -8.74409e-05 0)
(0.999739 8.70326e-05 0)
(1.00017 -8.82207e-05 0)
(0.999745 8.56683e-05 0)
(1.00017 -8.91624e-05 0)
(0.999753 8.43095e-05 0)
(1.00017 -8.99797e-05 0)
(0.999764 8.32412e-05 0)
(1.00018 -9.04246e-05 0)
(0.999777 8.26711e-05 0)
(1.00018 -9.03594e-05 0)
(0.999791 8.26605e-05 0)
(1.00019 -8.9733e-05 0)
(0.999802 8.33034e-05 0)
(1.00019 -8.84458e-05 0)
(0.999809 8.46729e-05 0)
(1.00019 -8.64845e-05 0)
(0.999811 8.66792e-05 0)
(1.00018 -8.40285e-05 0)
(0.999808 8.90622e-05 0)
(1.00017 -8.14041e-05 0)
(0.999799 9.14514e-05 0)
(1.00015 -7.9015e-05 0)
(0.999784 9.34423e-05 0)
(1.00012 -7.72384e-05 0)
(0.999762 9.47057e-05 0)
(1.00009 -7.63131e-05 0)
(0.999736 9.51449e-05 0)
(1.00006 -7.61947e-05 0)
(0.999711 9.49327e-05 0)
(1.00003 -7.66017e-05 0)
(0.99969 9.43428e-05 0)
(1 -7.72832e-05 0)
(0.999674 9.36413e-05 0)
(0.999983 -7.80002e-05 0)
(0.999663 9.30377e-05 0)
(0.999968 -7.8554e-05 0)
(0.999656 9.27223e-05 0)
(0.999956 -7.87466e-05 0)
(0.999651 9.28809e-05 0)
(0.999945 -7.84185e-05 0)
(0.999646 9.36869e-05 0)
(0.999935 -7.73986e-05 0)
(0.999641 9.52432e-05 0)
(0.999923 -7.57047e-05 0)
(0.999632 9.73871e-05 0)
(0.999907 -7.3626e-05 0)
(0.999619 9.9745e-05 0)
(0.999886 -7.15773e-05 0)
(0.999599 0.000101884 0)
(0.999858 -6.99832e-05 0)
(0.999573 0.000103462 0)
(0.999824 -6.90676e-05 0)
(0.999543 0.000104374 0)
(0.999789 -6.88211e-05 0)
(0.999512 0.000104735 0)
(0.999754 -6.90265e-05 0)
(0.999483 0.000104833 0)
(0.999722 -6.93768e-05 0)
(0.999458 0.000104961 0)
(0.999695 -6.96073e-05 0)
(0.999437 0.000105358 0)
(0.999671 -6.94994e-05 0)
(0.999419 0.000106225 0)
(0.99965 -6.88864e-05 0)
(0.999402 0.000107683 0)
(0.999629 -6.77136e-05 0)
(0.999384 0.000109702 0)
(0.999606 -6.60957e-05 0)
(0.999364 0.000112095 0)
(0.99958 -6.42755e-05 0)
(0.999339 0.000114595 0)
(0.999549 -6.25232e-05 0)
(0.99931 0.000116952 0)
(0.999513 -6.1055e-05 0)
(0.999277 0.000119002 0)
(0.999475 -5.99777e-05 0)
(0.999241 0.000120702 0)
(0.999434 -5.92623e-05 0)
(0.999204 0.000122154 0)
(0.999394 -5.87497e-05 0)
(0.999168 0.000123561 0)
(0.999356 -5.82224e-05 0)
(0.999135 0.000125135 0)
(0.99932 -5.74875e-05 0)
(0.999104 0.000127045 0)
(0.999286 -5.64122e-05 0)
(0.999073 0.000129386 0)
(0.999252 -5.49462e-05 0)
(0.999043 0.000132157 0)
(0.999217 -5.3148e-05 0)
(0.99901 0.000135256 0)
(0.99918 -5.11535e-05 0)
(0.998975 0.000138532 0)
(0.999139 -4.9116e-05 0)
(0.998936 0.000141846 0)
(0.999095 -4.71589e-05 0)
(0.998893 0.000145104 0)
(0.999048 -4.5343e-05 0)
(0.998849 0.000148285 0)
(0.998999 -4.36537e-05 0)
(0.998803 0.000151443 0)
(0.99895 -4.20062e-05 0)
(0.998757 0.000154691 0)
(0.9989 -4.02783e-05 0)
(0.998712 0.000158153 0)
(0.998852 -3.83578e-05 0)
(0.998666 0.000161928 0)
(0.998803 -3.61704e-05 0)
(0.998621 0.000166068 0)
(0.998754 -3.36912e-05 0)
(0.998574 0.000170576 0)
(0.998703 -3.09401e-05 0)
(0.998525 0.000175422 0)
(0.99865 -2.79658e-05 0)
(0.998474 0.000180551 0)
(0.998593 -2.48251e-05 0)
(0.99842 0.000185918 0)
(0.998534 -2.15589e-05 0)
(0.998363 0.000191499 0)
(0.998473 -1.81748e-05 0)
(0.998304 0.00019731 0)
(0.998409 -1.46417e-05 0)
(0.998243 0.000203405 0)
(0.998344 -1.08957e-05 0)
(0.99818 0.000209864 0)
(0.998278 -6.85498e-06 0)
(0.998117 0.000216775 0)
(0.99821 -2.43827e-06 0)
(0.998052 0.000224218 0)
(0.998141 2.42125e-06 0)
(0.997984 0.000232256 0)
(0.998069 7.76832e-06 0)
(0.997915 0.000240927 0)
(0.997994 1.36222e-05 0)
(0.997842 0.000250242 0)
(0.997916 1.99745e-05 0)
(0.997766 0.000260188 0)
(0.997835 2.67946e-05 0)
(0.997687 0.00027074 0)
(0.99775 3.40729e-05 0)
(0.997604 0.000281927 0)
(0.997662 4.18626e-05 0)
(0.997517 0.00029384 0)
(0.99757 5.02676e-05 0)
(0.997428 0.000306602 0)
(0.997474 5.9408e-05 0)
(0.997334 0.000320338 0)
(0.997375 6.93851e-05 0)
(0.997236 0.000335139 0)
(0.997271 8.02559e-05 0)
(0.997134 0.000351055 0)
(0.997162 9.20678e-05 0)
(0.997026 0.000368168 0)
(0.997047 0.000104929 0)
(0.996912 0.000386641 0)
(0.996925 0.000119038 0)
(0.996791 0.000406731 0)
(0.996795 0.000134682 0)
(0.996662 0.000428776 0)
(0.996657 0.000152225 0)
(0.996523 0.000453196 0)
(0.996509 0.000172119 0)
(0.996374 0.000480509 0)
(0.99635 0.000194927 0)
(0.996214 0.000511372 0)
(0.996177 0.000221392 0)
(0.996038 0.00054668 0)
(0.995988 0.000252573 0)
(0.995845 0.000587764 0)
(0.99578 0.000290145 0)
(0.995631 0.000636854 0)
(0.995547 0.000337115 0)
(0.995389 0.000698166 0)
(0.995283 0.000399383 0)
(0.995114 0.000780032 0)
(0.994984 0.000488514 0)
(0.994802 0.000898324 0)
(0.994648 0.000625734 0)
(0.994456 0.0010808 0)
(0.99428 0.00084622 0)
(0.994084 0.00137059 0)
(0.993894 0.00120063 0)
(0.999938 6.63451e-05 0)
(1.00008 -7.3109e-05 0)
(0.999966 6.61918e-05 0)
(1.00009 -6.89599e-05 0)
(0.99997 6.95027e-05 0)
(1.00008 -6.55503e-05 0)
(0.999962 7.04683e-05 0)
(1.00007 -6.43613e-05 0)
(0.999949 7.01615e-05 0)
(1.00005 -6.35865e-05 0)
(0.999936 6.99043e-05 0)
(1.00003 -6.27148e-05 0)
(0.999925 6.95844e-05 0)
(1.00002 -6.22093e-05 0)
(0.999918 6.86784e-05 0)
(1.00001 -6.24681e-05 0)
(0.999916 6.69628e-05 0)
(1 -6.35429e-05 0)
(0.999917 6.45516e-05 0)
(1 -6.51834e-05 0)
(0.999922 6.17954e-05 0)
(1 -6.69722e-05 0)
(0.999928 5.91682e-05 0)
(1 -6.84012e-05 0)
(0.999938 5.71742e-05 0)
(1.00001 -6.90232e-05 0)
(0.99995 5.61765e-05 0)
(1.00002 -6.85825e-05 0)
(0.999962 5.63301e-05 0)
(1.00002 -6.69707e-05 0)
(0.999972 5.7717e-05 0)
(1.00003 -6.41462e-05 0)
(0.999978 6.03165e-05 0)
(1.00003 -6.0228e-05 0)
(0.999979 6.38916e-05 0)
(1.00002 -5.55709e-05 0)
(0.999975 6.79838e-05 0)
(1.00001 -5.07289e-05 0)
(0.999964 7.19546e-05 0)
(0.99999 -4.64076e-05 0)
(0.999947 7.50776e-05 0)
(0.999966 -4.32876e-05 0)
(0.999923 7.67838e-05 0)
(0.999936 -4.17659e-05 0)
(0.999896 7.68697e-05 0)
(0.999905 -4.18192e-05 0)
(0.999869 7.56008e-05 0)
(0.999876 -4.29934e-05 0)
(0.999846 7.35381e-05 0)
(0.999853 -4.46831e-05 0)
(0.999829 7.12953e-05 0)
(0.999835 -4.62979e-05 0)
(0.999817 6.93995e-05 0)
(0.999822 -4.7373e-05 0)
(0.999808 6.8261e-05 0)
(0.999812 -4.75504e-05 0)
(0.999801 6.81814e-05 0)
(0.999803 -4.65865e-05 0)
(0.999795 6.9385e-05 0)
(0.999795 -4.43059e-05 0)
(0.999788 7.19023e-05 0)
(0.999785 -4.08716e-05 0)
(0.999778 7.53699e-05 0)
(0.999771 -3.68167e-05 0)
(0.999763 7.91235e-05 0)
(0.999751 -3.2896e-05 0)
(0.999741 8.23771e-05 0)
(0.999724 -2.98428e-05 0)
(0.999713 8.45207e-05 0)
(0.999692 -2.80992e-05 0)
(0.999681 8.53132e-05 0)
(0.999658 -2.76783e-05 0)
(0.999648 8.49778e-05 0)
(0.999625 -2.81517e-05 0)
(0.999617 8.40872e-05 0)
(0.999595 -2.88777e-05 0)
(0.99959 8.32716e-05 0)
(0.99957 -2.92773e-05 0)
(0.999568 8.30462e-05 0)
(0.999548 -2.89052e-05 0)
(0.999548 8.37792e-05 0)
(0.999529 -2.74935e-05 0)
(0.99953 8.56212e-05 0)
(0.99951 -2.50239e-05 0)
(0.999511 8.84422e-05 0)
(0.999489 -2.17704e-05 0)
(0.999489 9.18611e-05 0)
(0.999465 -1.81851e-05 0)
(0.999462 9.5384e-05 0)
(0.999436 -1.4774e-05 0)
(0.999431 9.85313e-05 0)
(0.999402 -1.19541e-05 0)
(0.999396 0.000100981 0)
(0.999365 -9.92424e-06 0)
(0.999358 0.000102676 0)
(0.999326 -8.60129e-06 0)
(0.999319 0.000103835 0)
(0.999288 -7.64824e-06 0)
(0.999282 0.000104861 0)
(0.999252 -6.64319e-06 0)
(0.999246 0.000106168 0)
(0.999218 -5.20809e-06 0)
(0.999214 0.000108079 0)
(0.999186 -3.09451e-06 0)
(0.999182 0.000110753 0)
(0.999154 -2.43365e-07 0)
(0.99915 0.00011415 0)
(0.999121 3.2081e-06 0)
(0.999116 0.000118055 0)
(0.999086 6.99115e-06 0)
(0.999078 0.000122172 0)
(0.999047 1.08052e-05 0)
(0.999037 0.000126222 0)
(0.999004 1.44133e-05 0)
(0.998993 0.000130029 0)
(0.998959 1.77098e-05 0)
(0.998947 0.000133566 0)
(0.998912 2.07451e-05 0)
(0.998899 0.000136954 0)
(0.998865 2.36984e-05 0)
(0.998852 0.000140411 0)
(0.998818 2.67996e-05 0)
(0.998805 0.000144163 0)
(0.998771 3.02523e-05 0)
(0.998758 0.000148381 0)
(0.998725 3.41837e-05 0)
(0.998711 0.000153145 0)
(0.998677 3.86248e-05 0)
(0.998663 0.000158443 0)
(0.998628 4.35216e-05 0)
(0.998613 0.000164191 0)
(0.998577 4.87658e-05 0)
(0.99856 0.000170269 0)
(0.998523 5.42373e-05 0)
(0.998504 0.000176573 0)
(0.998466 5.98532e-05 0)
(0.998445 0.000183053 0)
(0.998406 6.55987e-05 0)
(0.998384 0.000189732 0)
(0.998345 7.15322e-05 0)
(0.998322 0.000196702 0)
(0.998282 7.77678e-05 0)
(0.998258 0.000204096 0)
(0.998218 8.44424e-05 0)
(0.998193 0.00021205 0)
(0.998152 9.16808e-05 0)
(0.998127 0.000220674 0)
(0.998085 9.95704e-05 0)
(0.998058 0.000230036 0)
(0.998016 0.000108152 0)
(0.997987 0.000240157 0)
(0.997943 0.00011743 0)
(0.997913 0.000251033 0)
(0.997868 0.000127394 0)
(0.997836 0.000262664 0)
(0.997789 0.000138058 0)
(0.997756 0.000275088 0)
(0.997707 0.000149473 0)
(0.997672 0.000288375 0)
(0.997622 0.000161724 0)
(0.997584 0.000302633 0)
(0.997533 0.000174935 0)
(0.997493 0.000318005 0)
(0.99744 0.000189255 0)
(0.997399 0.000334646 0)
(0.997344 0.000204836 0)
(0.9973 0.00035271 0)
(0.997243 0.000221823 0)
(0.997197 0.000372349 0)
(0.997137 0.00024038 0)
(0.997089 0.000393754 0)
(0.997026 0.000260725 0)
(0.996974 0.00041719 0)
(0.996909 0.000283164 0)
(0.996853 0.000443017 0)
(0.996784 0.000308109 0)
(0.996724 0.000471712 0)
(0.996651 0.000336091 0)
(0.996587 0.000503883 0)
(0.996509 0.000367796 0)
(0.99644 0.000540318 0)
(0.996357 0.000404126 0)
(0.996282 0.000582076 0)
(0.996192 0.000446327 0)
(0.99611 0.000630665 0)
(0.996014 0.00049624 0)
(0.995924 0.00068839 0)
(0.995819 0.000556772 0)
(0.99572 0.00075898 0)
(0.995606 0.000632714 0)
(0.995497 0.000848591 0)
(0.995373 0.000731854 0)
(0.995255 0.000966892 0)
(0.995123 0.000865836 0)
(0.994999 0.00112744 0)
(0.994862 0.0010498 0)
(0.994735 0.00134639 0)
(0.994598 0.00130012 0)
(0.994474 0.00163931 0)
(0.994342 0.00163052 0)
(0.999992 4.83022e-05 0)
(1.00002 -4.00292e-05 0)
(1.00002 4.95349e-05 0)
(1.00004 -4.04649e-05 0)
(1.00002 4.71872e-05 0)
(1.00003 -4.12294e-05 0)
(1.00001 4.59944e-05 0)
(1.00002 -4.05161e-05 0)
(0.999996 4.61473e-05 0)
(1 -3.88419e-05 0)
(0.999981 4.68082e-05 0)
(0.999989 -3.71857e-05 0)
(0.999969 4.69708e-05 0)
(0.999976 -3.64973e-05 0)
(0.99996 4.5881e-05 0)
(0.999968 -3.72459e-05 0)
(0.999956 4.33773e-05 0)
(0.999964 -3.9309e-05 0)
(0.999956 3.98089e-05 0)
(0.999962 -4.21599e-05 0)
(0.999959 3.58285e-05 0)
(0.999964 -4.5081e-05 0)
(0.999965 3.21936e-05 0)
(0.999968 -4.73056e-05 0)
(0.999975 2.9629e-05 0)
(0.999975 -4.81922e-05 0)
(0.999986 2.86618e-05 0)
(0.999984 -4.73486e-05 0)
(0.999998 2.95444e-05 0)
(0.999991 -4.46505e-05 0)
(1.00001 3.22932e-05 0)
(0.999996 -4.01952e-05 0)
(1.00001 3.67051e-05 0)
(0.999995 -3.42954e-05 0)
(1.00001 4.23508e-05 0)
(0.99999 -2.75119e-05 0)
(1.00001 4.85453e-05 0)
(0.999979 -2.06386e-05 0)
(0.999998 5.43821e-05 0)
(0.999961 -1.46797e-05 0)
(0.999979 5.88047e-05 0)
(0.999937 -1.06382e-05 0)
(0.999954 6.09841e-05 0)
(0.999907 -9.08238e-06 0)
(0.999926 6.06691e-05 0)
(0.999876 -9.90996e-06 0)
(0.999898 5.83127e-05 0)
(0.999847 -1.23883e-05 0)
(0.999874 5.48111e-05 0)
(0.999824 -1.55423e-05 0)
(0.999856 5.11569e-05 0)
(0.999807 -1.842e-05 0)
(0.999844 4.82188e-05 0)
(0.999795 -2.02583e-05 0)
(0.999835 4.66481e-05 0)
(0.999786 -2.05143e-05 0)
(0.999828 4.68768e-05 0)
(0.999778 -1.88575e-05 0)
(0.999822 4.91199e-05 0)
(0.999771 -1.52339e-05 0)
(0.999816 5.32059e-05 0)
(0.999762 -1.00525e-05 0)
(0.999806 5.85201e-05 0)
(0.999749 -4.1262e-06 0)
(0.99979 6.40685e-05 0)
(0.999729 1.427e-06 0)
(0.999767 6.87047e-05 0)
(0.999702 5.55664e-06 0)
(0.999738 7.15566e-05 0)
(0.99967 7.6478e-06 0)
(0.999705 7.23326e-05 0)
(0.999636 7.76957e-06 0)
(0.999671 7.14526e-05 0)
(0.999603 6.61713e-06 0)
(0.999639 6.9785e-05 0)
(0.999574 5.14923e-06 0)
(0.999612 6.83019e-05 0)
(0.999549 4.28864e-06 0)
(0.999589 6.78298e-05 0)
(0.999529 4.72779e-06 0)
(0.99957 6.88969e-05 0)
(0.99951 6.81179e-06 0)
(0.999552 7.1639e-05 0)
(0.999492 1.04502e-05 0)
(0.999533 7.57528e-05 0)
(0.999473 1.51644e-05 0)
(0.99951 8.06351e-05 0)
(0.999449 2.02648e-05 0)
(0.999484 8.55448e-05 0)
(0.99942 2.50039e-05 0)
(0.999452 8.97782e-05 0)
(0.999386 2.87806e-05 0)
(0.999415 9.28871e-05 0)
(0.999349 3.13428e-05 0)
(0.999376 9.48421e-05 0)
(0.99931 3.28796e-05 0)
(0.999337 9.60248e-05 0)
(0.999273 3.39167e-05 0)
(0.999299 9.70426e-05 0)
(0.999237 3.50904e-05 0)
(0.999264 9.85172e-05 0)
(0.999204 3.69661e-05 0)
(0.999231 0.00010092 0)
(0.999173 3.98887e-05 0)
(0.999199 0.000104445 0)
(0.999142 4.38924e-05 0)
(0.999167 0.000108979 0)
(0.99911 4.87331e-05 0)
(0.999133 0.000114178 0)
(0.999075 5.39974e-05 0)
(0.999095 0.000119591 0)
(0.999037 5.92376e-05 0)
(0.999054 0.00012481 0)
(0.998994 6.41129e-05 0)
(0.999009 0.000129589 0)
(0.998949 6.84945e-05 0)
(0.998962 0.000133924 0)
(0.998903 7.2493e-05 0)
(0.998914 0.000138026 0)
(0.998856 7.63958e-05 0)
(0.998867 0.000142226 0)
(0.998809 8.05459e-05 0)
(0.99882 0.000146854 0)
(0.998763 8.52354e-05 0)
(0.998773 0.000152146 0)
(0.998718 9.06315e-05 0)
(0.998726 0.000158198 0)
(0.998671 9.67538e-05 0)
(0.998678 0.00016496 0)
(0.998623 0.000103496 0)
(0.998628 0.000172284 0)
(0.998572 0.000110681 0)
(0.998575 0.000179982 0)
(0.998519 0.000118129 0)
(0.998519 0.000187902 0)
(0.998462 0.000125726 0)
(0.99846 0.00019598 0)
(0.998403 0.000133463 0)
(0.998399 0.000204262 0)
(0.998342 0.000141437 0)
(0.998337 0.000212892 0)
(0.99828 0.00014982 0)
(0.998273 0.000222057 0)
(0.998217 0.000158806 0)
(0.998209 0.000231946 0)
(0.998152 0.000168558 0)
(0.998143 0.000242694 0)
(0.998086 0.000179183 0)
(0.998075 0.000254377 0)
(0.998018 0.00019072 0)
(0.998005 0.000267008 0)
(0.997946 0.000203166 0)
(0.997931 0.000280579 0)
(0.997872 0.000216512 0)
(0.997855 0.000295092 0)
(0.997795 0.000230778 0)
(0.997775 0.000310594 0)
(0.997714 0.000246034 0)
(0.997692 0.00032718 0)
(0.997629 0.000262401 0)
(0.997605 0.000344997 0)
(0.997542 0.000280042 0)
(0.997515 0.000364228 0)
(0.997451 0.000299153 0)
(0.997422 0.000385081 0)
(0.997356 0.000319949 0)
(0.997325 0.000407781 0)
(0.997258 0.00034266 0)
(0.997224 0.00043257 0)
(0.997155 0.000367545 0)
(0.997118 0.000459736 0)
(0.997046 0.00039492 0)
(0.997006 0.000489636 0)
(0.996932 0.000425188 0)
(0.996888 0.000522734 0)
(0.996811 0.000458875 0)
(0.996763 0.000559632 0)
(0.996682 0.000496669 0)
(0.996631 0.000601124 0)
(0.996546 0.000539478 0)
(0.99649 0.000648263 0)
(0.996401 0.000588528 0)
(0.996339 0.000702496 0)
(0.996245 0.000645534 0)
(0.996178 0.000765884 0)
(0.996079 0.000712976 0)
(0.996006 0.000841425 0)
(0.995902 0.000794465 0)
(0.995823 0.000933438 0)
(0.995714 0.000895069 0)
(0.99563 0.00104774 0)
(0.995517 0.00102127 0)
(0.99543 0.00119134 0)
(0.995315 0.00118038 0)
(0.995228 0.00137156 0)
(0.995115 0.00137939 0)
(0.99503 0.00159474 0)
(0.99492 0.00162361 0)
(0.994841 0.00186472 0)
(0.994738 0.00191504 0)
(1 3.29504e-05 0)
(1.00001 -1.44407e-05 0)
(1.00002 3.66595e-05 0)
(1.00003 -1.75125e-05 0)
(1.00002 3.02537e-05 0)
(1.00002 -2.24062e-05 0)
(1.00001 2.66311e-05 0)
(1.00001 -2.2925e-05 0)
(0.999998 2.71028e-05 0)
(0.999996 -2.05524e-05 0)
(0.999983 2.90358e-05 0)
(0.999981 -1.80662e-05 0)
(0.99997 3.0041e-05 0)
(0.999968 -1.72445e-05 0)
(0.99996 2.89852e-05 0)
(0.99996 -1.86292e-05 0)
(0.999956 2.58299e-05 0)
(0.999956 -2.1873e-05 0)
(0.999955 2.12131e-05 0)
(0.999955 -2.61286e-05 0)
(0.999958 1.61236e-05 0)
(0.999956 -3.03294e-05 0)
(0.999964 1.16453e-05 0)
(0.999961 -3.34288e-05 0)
(0.999973 8.75787e-06 0)
(0.999969 -3.45597e-05 0)
(0.999985 8.17053e-06 0)
(0.999979 -3.32117e-05 0)
(0.999997 1.01807e-05 0)
(0.999987 -2.92939e-05 0)
(1.00001 1.46934e-05 0)
(0.999992 -2.3071e-05 0)
(1.00001 2.12884e-05 0)
(0.999993 -1.50974e-05 0)
(1.00001 2.92966e-05 0)
(0.999988 -6.16678e-06 0)
(1.00001 3.77795e-05 0)
(0.999976 2.62514e-06 0)
(0.999998 4.54929e-05 0)
(0.999958 9.92481e-06 0)
(0.999979 5.10718e-05 0)
(0.999933 1.44903e-05 0)
(0.999953 5.35319e-05 0)
(0.999902 1.57006e-05 0)
(0.999924 5.26846e-05 0)
(0.99987 1.38195e-05 0)
(0.999895 4.92083e-05 0)
(0.999841 9.86191e-06 0)
(0.999871 4.43283e-05 0)
(0.999818 5.16206e-06 0)
(0.999854 3.94109e-05 0)
(0.999801 1.03808e-06 0)
(0.999841 3.56667e-05 0)
(0.999789 -1.44398e-06 0)
(0.999833 3.39971e-05 0)
(0.999781 -1.5565e-06 0)
(0.999827 3.49437e-05 0)
(0.999774 1.046e-06 0)
(0.999823 3.86158e-05 0)
(0.999768 6.20042e-06 0)
(0.999817 4.45803e-05 0)
(0.99976 1.32243e-05 0)
(0.999807 5.19098e-05 0)
(0.999746 2.0956e-05 0)
(0.999791 5.9244e-05 0)
(0.999726 2.79304e-05 0)
(0.999768 6.51317e-05 0)
(0.999698 3.2834e-05 0)
(0.999738 6.85209e-05 0)
(0.999665 3.49901e-05 0)
(0.999703 6.91827e-05 0)
(0.99963 3.46353e-05 0)
(0.999669 6.77591e-05 0)
(0.999597 3.27209e-05 0)
(0.999637 6.54071e-05 0)
(0.999567 3.05198e-05 0)
(0.999611 6.34364e-05 0)
(0.999543 2.92934e-05 0)
(0.999589 6.29717e-05 0)
(0.999524 2.99594e-05 0)
(0.99957 6.46712e-05 0)
(0.999506 3.28835e-05 0)
(0.999553 6.85888e-05 0)
(0.999489 3.7814e-05 0)
(0.999534 7.42157e-05 0)
(0.99947 4.40494e-05 0)
(0.999512 8.06999e-05 0)
(0.999446 5.06324e-05 0)
(0.999485 8.70358e-05 0)
(0.999417 5.65764e-05 0)
(0.999453 9.23277e-05 0)
(0.999383 6.11482e-05 0)
(0.999416 9.60685e-05 0)
(0.999345 6.411e-05 0)
(0.999376 9.83084e-05 0)
(0.999306 6.57908e-05 0)
(0.999337 9.96016e-05 0)
(0.999268 6.69002e-05 0)
(0.999299 0.000100759 0)
(0.999232 6.82911e-05 0)
(0.999264 0.000102609 0)
(0.9992 7.07031e-05 0)
(0.999232 0.000105747 0)
(0.99917 7.45443e-05 0)
(0.999201 0.000110369 0)
(0.99914 7.97965e-05 0)
(0.99917 0.00011626 0)
(0.999108 8.60868e-05 0)
(0.999136 0.00012293 0)
(0.999074 9.28434e-05 0)
(0.999098 0.000129772 0)
(0.999035 9.94752e-05 0)
(0.999056 0.000136257 0)
(0.998993 0.000105559 0)
(0.999011 0.000142103 0)
(0.998947 0.000110971 0)
(0.998964 0.000147348 0)
(0.998901 0.000115902 0)
(0.998916 0.000152309 0)
(0.998854 0.000120753 0)
(0.998869 0.000157434 0)
(0.998808 0.000125983 0)
(0.998822 0.000163156 0)
(0.998763 0.000131965 0)
(0.998776 0.000169766 0)
(0.998718 0.000138896 0)
(0.99873 0.000177359 0)
(0.998672 0.00014677 0)
(0.998682 0.00018584 0)
(0.998624 0.000155417 0)
(0.998632 0.000194985 0)
(0.998574 0.000164584 0)
(0.99858 0.000204536 0)
(0.998521 0.000174031 0)
(0.998524 0.000214296 0)
(0.998464 0.00018362 0)
(0.998465 0.000224197 0)
(0.998406 0.000193358 0)
(0.998405 0.000234321 0)
(0.998345 0.000203392 0)
(0.998343 0.000244867 0)
(0.998284 0.000213956 0)
(0.99828 0.000256087 0)
(0.998221 0.0002253 0)
(0.998216 0.000268214 0)
(0.998158 0.000237627 0)
(0.998151 0.000281412 0)
(0.998093 0.000251057 0)
(0.998084 0.000295758 0)
(0.998025 0.000265625 0)
(0.998015 0.000311258 0)
(0.997955 0.000281317 0)
(0.997943 0.000327889 0)
(0.997882 0.000298115 0)
(0.997867 0.00034565 0)
(0.997806 0.000316041 0)
(0.997788 0.000364594 0)
(0.997726 0.000335181 0)
(0.997706 0.000384843 0)
(0.997643 0.00035569 0)
(0.997622 0.000406584 0)
(0.997558 0.00037778 0)
(0.997534 0.000430053 0)
(0.997469 0.000401705 0)
(0.997443 0.000455518 0)
(0.997377 0.000427744 0)
(0.997348 0.000483272 0)
(0.997281 0.000456201 0)
(0.99725 0.000513634 0)
(0.997181 0.000487412 0)
(0.997147 0.000546965 0)
(0.997076 0.000521767 0)
(0.997039 0.000583698 0)
(0.996966 0.000559752 0)
(0.996925 0.000624382 0)
(0.99685 0.000601986 0)
(0.996806 0.000669726 0)
(0.996728 0.000649283 0)
(0.99668 0.000720671 0)
(0.996599 0.000702725 0)
(0.996548 0.000778465 0)
(0.996464 0.000763756 0)
(0.996408 0.000844786 0)
(0.996321 0.000834316 0)
(0.996261 0.000921871 0)
(0.996171 0.000916962 0)
(0.996108 0.00101261 0)
(0.996015 0.0010149 0)
(0.995949 0.00112049 0)
(0.995855 0.00113184 0)
(0.995788 0.00124936 0)
(0.995694 0.00127162 0)
(0.995626 0.00140295 0)
(0.995534 0.00143776 0)
(0.995469 0.00158439 0)
(0.99538 0.00163287 0)
(0.995319 0.00179569 0)
(0.995235 0.00185824 0)
(0.99518 0.00203727 0)
(0.995103 0.00211336 0)
(1 2.18656e-05 0)
(1.00001 -3.20598e-07 0)
(1.00001 2.85897e-05 0)
(1.00002 -2.04678e-06 0)
(1.00001 2.2366e-05 0)
(1.00002 -8.29308e-06 0)
(1 1.73347e-05 0)
(1.00001 -1.03785e-05 0)
(0.999991 1.71038e-05 0)
(0.999994 -8.5254e-06 0)
(0.999975 1.92498e-05 0)
(0.999978 -5.98355e-06 0)
(0.999961 2.06077e-05 0)
(0.999966 -5.31024e-06 0)
(0.99995 1.94479e-05 0)
(0.999957 -7.41253e-06 0)
(0.999945 1.55887e-05 0)
(0.999952 -1.18679e-05 0)
(0.999944 9.8916e-06 0)
(0.999951 -1.75516e-05 0)
(0.999946 3.65729e-06 0)
(0.999953 -2.30533e-05 0)
(0.999952 -1.65841e-06 0)
(0.999959 -2.69575e-05 0)
(0.999962 -4.76714e-06 0)
(0.999968 -2.81686e-05 0)
(0.999975 -4.81126e-06 0)
(0.999979 -2.61096e-05 0)
(0.999988 -1.49703e-06 0)
(0.999988 -2.07645e-05 0)
(0.999999 4.93915e-06 0)
(0.999994 -1.25796e-05 0)
(1.00001 1.3867e-05 0)
(0.999995 -2.35629e-06 0)
(1.00001 2.43376e-05 0)
(0.999991 8.80158e-06 0)
(1 3.50741e-05 0)
(0.999979 1.94263e-05 0)
(0.99999 4.44574e-05 0)
(0.99996 2.78429e-05 0)
(0.999969 5.08865e-05 0)
(0.999933 3.26719e-05 0)
(0.999942 5.33403e-05 0)
(0.999901 3.33498e-05 0)
(0.999911 5.17691e-05 0)
(0.999868 3.03391e-05 0)
(0.999882 4.70895e-05 0)
(0.999838 2.49174e-05 0)
(0.999858 4.08489e-05 0)
(0.999815 1.87886e-05 0)
(0.99984 3.47897e-05 0)
(0.999799 1.36389e-05 0)
(0.999829 3.04536e-05 0)
(0.999788 1.08092e-05 0)
(0.999822 2.8948e-05 0)
(0.999781 1.11526e-05 0)
(0.999818 3.08473e-05 0)
(0.999776 1.49435e-05 0)
(0.999814 3.60973e-05 0)
(0.999771 2.17956e-05 0)
(0.999809 4.40068e-05 0)
(0.999763 3.0721e-05 0)
(0.9998 5.32868e-05 0)
(0.999749 4.01736e-05 0)
(0.999784 6.22153e-05 0)
(0.999728 4.83731e-05 0)
(0.99976 6.90891e-05 0)
(0.999699 5.38407e-05 0)
(0.999728 7.27923e-05 0)
(0.999665 5.59338e-05 0)
(0.999693 7.32126e-05 0)
(0.999628 5.5061e-05 0)
(0.999657 7.12018e-05 0)
(0.999594 5.24237e-05 0)
(0.999626 6.82198e-05 0)
(0.999565 4.96357e-05 0)
(0.9996 6.59139e-05 0)
(0.999542 4.82605e-05 0)
(0.999579 6.56521e-05 0)
(0.999523 4.93792e-05 0)
(0.999562 6.81607e-05 0)
(0.999508 5.33245e-05 0)
(0.999546 7.33764e-05 0)
(0.999491 5.9682e-05 0)
(0.999529 8.05939e-05 0)
(0.999472 6.75081e-05 0)
(0.999507 8.86865e-05 0)
(0.999448 7.5564e-05 0)
(0.999479 9.63855e-05 0)
(0.999419 8.26432e-05 0)
(0.999446 0.000102637 0)
(0.999383 8.79277e-05 0)
(0.999408 0.000106926 0)
(0.999344 9.12423e-05 0)
(0.999368 0.000109418 0)
(0.999305 9.30607e-05 0)
(0.999328 0.000110838 0)
(0.999267 9.42966e-05 0)
(0.999291 0.000112219 0)
(0.999232 9.60178e-05 0)
(0.999257 0.000114577 0)
(0.9992 9.91108e-05 0)
(0.999226 0.000118601 0)
(0.999171 0.000104017 0)
(0.999196 0.000124463 0)
(0.999142 0.000110649 0)
(0.999166 0.000131844 0)
(0.999111 0.000118494 0)
(0.999132 0.000140087 0)
(0.999077 0.000126806 0)
(0.999094 0.000148419 0)
(0.999038 0.000134851 0)
(0.999052 0.000156204 0)
(0.998995 0.000142144 0)
(0.999007 0.000163144 0)
(0.998949 0.000148587 0)
(0.998959 0.000169342 0)
(0.998902 0.000154466 0)
(0.998912 0.000175227 0)
(0.998855 0.000160306 0)
(0.998864 0.000181375 0)
(0.99881 0.000166685 0)
(0.998819 0.000188318 0)
(0.998766 0.000174054 0)
(0.998774 0.000196399 0)
(0.998721 0.000182628 0)
(0.998728 0.000205703 0)
(0.998677 0.000192366 0)
(0.998682 0.000216071 0)
(0.99863 0.000203018 0)
(0.998632 0.000227197 0)
(0.99858 0.000214248 0)
(0.99858 0.000238746 0)
(0.998527 0.000225757 0)
(0.998524 0.00025048 0)
(0.998471 0.000237388 0)
(0.998466 0.000262339 0)
(0.998412 0.000249177 0)
(0.998406 0.000274446 0)
(0.998352 0.000261326 0)
(0.998345 0.000287068 0)
(0.998292 0.000274139 0)
(0.998283 0.00030052 0)
(0.99823 0.000287923 0)
(0.99822 0.000315083 0)
(0.998168 0.000302917 0)
(0.998157 0.000330943 0)
(0.998104 0.000319247 0)
(0.998091 0.000348173 0)
(0.998038 0.00033694 0)
(0.998023 0.000366761 0)
(0.997969 0.000355961 0)
(0.997952 0.000386667 0)
(0.997898 0.000376276 0)
(0.997878 0.000407879 0)
(0.997823 0.000397907 0)
(0.997801 0.000430457 0)
(0.997745 0.000420955 0)
(0.997721 0.00045455 0)
(0.997664 0.000445614 0)
(0.997638 0.000480389 0)
(0.997581 0.000472146 0)
(0.997553 0.000508266 0)
(0.997495 0.000500862 0)
(0.997464 0.000538506 0)
(0.997406 0.000532102 0)
(0.997373 0.000571459 0)
(0.997313 0.000566221 0)
(0.997278 0.000607494 0)
(0.997217 0.000603606 0)
(0.99718 0.000647021 0)
(0.997117 0.000644695 0)