/*--------------------------------*- C++ -*----------------------------------*\
| =========                 |                                                 |
| \\      /  F ield         | OpenFOAM: The Open Source CFD Toolbox           |
|  \\    /   O peration     | Version:  v1912                                 |
|   \\  /    A nd           | Website:  www.openfoam.com                      |
|    \\/     M anipulation  |                                                 |
\*---------------------------------------------------------------------------*/
FoamFile
{
    version     2.0;
    format      ascii;
    class       volScalarField;
    location    "0.4";
    object      p;
}
// * * * * * * * * * * * * * * * * * * * * * * * * * * * * * * * * * * * * * //

dimensions      [0 2 -2 0 0 0 0];


internalField   nonuniform List<scalar> 
12000
(
-7.08337e-09
-9.72457e-06
-1.47275e-05
-1.48369e-05
-1.04065e-05
-2.12883e-06
8.97896e-06
2.17798e-05
3.50355e-05
4.76838e-05
5.87272e-05
6.74913e-05
7.33304e-05
7.59114e-05
7.48132e-05
6.99032e-05
6.1021e-05
4.84119e-05
3.23806e-05
1.36427e-05
-6.97554e-06
-2.83106e-05
-4.91293e-05
-6.79898e-05
-8.35289e-05
-9.43609e-05
-9.93763e-05
-9.773e-05
-8.9054e-05
-7.33892e-05
-5.13639e-05
-2.41088e-05
6.67966e-06
3.86752e-05
6.94182e-05
9.65357e-05
0.000117843
0.000131726
0.000137114
0.000133863
0.000122573
0.000105017
8.36612e-05
6.15726e-05
4.18516e-05
2.75964e-05
2.12159e-05
2.45211e-05
3.80374e-05
6.13096e-05
9.25151e-05
0.000128879
0.000166632
0.000202008
0.00023131
0.00025183
0.000261749
0.00026095
0.000250674
0.000233717
0.000213655
0.000194736
0.000180947
0.000175791
0.000181395
0.000198508
0.000226091
0.000261697
0.000301363
0.000340563
0.000374788
0.000400486
0.000415332
0.000418959
0.00041275
0.000399776
0.000384086
0.000370289
0.000362588
0.000364327
0.000377174
0.00040111
0.000434149
0.000472899
0.000512792
0.000549314
0.000578499
0.000597927
0.000606779
0.000606375
0.000599466
0.000590152
0.00058275
0.000581389
0.000588927
0.0006068
0.000634379
0.000669506
0.000708466
0.000747153
0.000781391
0.000808217
0.000825925
0.000834886
0.000836873
0.000835252
0.000833771
0.000836379
0.000845967
0.000864326
0.000891321
0.000925455
0.000963673
0.00100251
0.00103827
0.00106828
0.00109084
0.00110612
0.00111549
0.00112178
0.00112811
0.00113786
0.00115341
0.00117627
0.00120624
0.00124204
0.00128107
0.00132053
0.0013574
0.00138966
0.00141609
0.00143706
0.0014538
0.00146874
0.00148436
0.00150329
0.00152716
0.00155695
0.00159216
0.00163164
0.00167316
0.00171465
0.00175385
0.00178958
0.00182112
0.00184921
0.00187492
0.00190032
0.00192714
0.0019573
0.0019916
0.00203056
0.00207337
0.0021191
0.00216592
0.00221254
0.0022574
0.00230012
0.00234036
0.00237908
0.00241709
0.00245607
0.00249701
0.00254125
0.00258896
0.00264044
0.0026948
0.00275154
0.00280951
0.00286788
0.00292569
0.00298319
0.00304022
0.00309786
0.00315659
0.00321782
0.003282
0.00335024
0.00342239
0.00349894
0.00357915
0.00366312
0.00374999
0.00384004
0.0039328
0.0040292
0.00412946
0.00423519
0.00434714
0.00446743
0.00459706
0.00473843
0.00489274
0.00506275
0.00525006
0.00545799
0.00568849
0.00594504
0.00622883
0.00654141
2.68628e-06
-9.59413e-06
-1.54134e-05
-1.57478e-05
-1.09512e-05
-2.5087e-06
8.92818e-06
2.1752e-05
3.51878e-05
4.7783e-05
5.89877e-05
6.77099e-05
7.37165e-05
7.62472e-05
7.52839e-05
7.02667e-05
6.14395e-05
4.8636e-05
3.25746e-05
1.36318e-05
-7.02259e-06
-2.85749e-05
-4.9452e-05
-6.85436e-05
-8.41333e-05
-9.51538e-05
-0.000100118
-9.85281e-05
-8.96502e-05
-7.39033e-05
-5.15846e-05
-2.42112e-05
6.75414e-06
3.87641e-05
6.96745e-05
9.67932e-05
0.000118243
0.000132034
0.000137452
0.000133986
0.000122632
0.000104819
8.33375e-05
6.09949e-05
4.11965e-05
2.678e-05
2.04783e-05
2.37921e-05
3.75602e-05
6.10138e-05
9.24666e-05
0.000128885
0.000166776
0.000202145
0.000231536
0.000251974
0.000261929
0.000260983
0.000250584
0.000233341
0.000213122
0.000193983
0.000180156
0.000174937
0.000180728
0.000198021
0.000225907
0.000261609
0.000301383
0.00034057
0.000374882
0.000400519
0.000415411
0.000418888
0.000412546
0.000399271
0.000383412
0.000369409
0.000361719
0.000363466
0.000376552
0.000400671
0.000433961
0.000472774
0.000512778
0.000549263
0.000578499
0.000597808
0.000606609
0.00060594
0.000598856
0.000589285
0.000581809
0.000580382
0.000588064
0.000606047
0.000633857
0.000669089
0.000708205
0.00074688
0.000781166
0.00080787
0.000825533
0.000834271
0.000836138
0.000834278
0.000832715
0.000835204
0.000844862
0.000863252
0.000890416
0.000924617
0.000962976
0.0010018
0.0010376
0.00106748
0.00108999
0.00110507
0.00111434
0.00112041
0.00112667
0.00113628
0.00115187
0.0011747
0.00120478
0.00124058
0.00127971
0.0013191
0.00135599
0.0013881
0.00141447
0.00143521
0.00145185
0.00146656
0.0014821
0.00150085
0.00152472
0.00155441
0.00158967
0.00162905
0.0016706
0.00171193
0.00175109
0.00178657
0.00181801
0.00184578
0.00187135
0.00189644
0.00192314
0.001953
0.00198722
0.00202592
0.00206868
0.00211417
0.00216095
0.0022073
0.00225208
0.00229445
0.00233454
0.00237285
0.00241065
0.00244918
0.00248991
0.00253371
0.00258124
0.00263232
0.00268655
0.00274292
0.00280057
0.00285839
0.00291591
0.00297278
0.0030294
0.00308629
0.0031445
0.00320487
0.00326843
0.00333567
0.00340705
0.00348243
0.00356167
0.00364422
0.00372983
0.00381811
0.00390923
0.00400337
0.00410135
0.00420398
0.00431254
0.0044281
0.00455195
0.00468492
0.0048278
0.00498063
0.00514328
0.00531471
0.00549367
0.005678
0.00586571
0.00605443
5.54354e-06
-9.90821e-06
-1.68997e-05
-1.74072e-05
-1.20632e-05
-3.12665e-06
8.8569e-06
2.1897e-05
3.56142e-05
4.8308e-05
5.97622e-05
6.85838e-05
7.48174e-05
7.73833e-05
7.65149e-05
7.13589e-05
6.24387e-05
4.9308e-05
3.3003e-05
1.36121e-05
-7.37313e-06
-2.94279e-05
-5.06661e-05
-7.02221e-05
-8.60449e-05
-9.72844e-05
-0.000102192
-0.000100507
-9.1236e-05
-7.50924e-05
-5.21593e-05
-2.43029e-05
7.24406e-06
3.96453e-05
7.10101e-05
9.83087e-05
0.000119896
0.0001335
0.000138675
0.000134686
0.000122867
0.000104395
8.23667e-05
5.93921e-05
3.92363e-05
2.45593e-05
1.83807e-05
2.19566e-05
3.62995e-05
6.03259e-05
9.25098e-05
0.000129463
0.000167881
0.000203478
0.00023297
0.000253197
0.000262873
0.000261389
0.000250462
0.000232498
0.000211708
0.000192031
0.000178004
0.000172804
0.000179012
0.00019684
0.000225467
0.000261762
0.00030211
0.000341572
0.000376051
0.000401535
0.000416166
0.00041911
0.000412223
0.000398226
0.000381811
0.000367336
0.00035956
0.000361434
0.000375012
0.000399696
0.000433687
0.00047302
0.000513473
0.00055009
0.000579296
0.000598252
0.000606613
0.000605273
0.000597605
0.000587437
0.000579666
0.000578116
0.000586044
0.0006044
0.000632809
0.000668555
0.000708187
0.000747103
0.000781494
0.000807985
0.000825326
0.000833494
0.000834825
0.000832388
0.000830477
0.000832742
0.000842499
0.000861101
0.000888722
0.000923335
0.000962153
0.00100121
0.00103715
0.00106686
0.00108911
0.0011037
0.0011125
0.00111804
0.00112396
0.00113332
0.00114894
0.00117188
0.00120229
0.00123838
0.00127785
0.0013174
0.00135437
0.00138629
0.0014124
0.00143268
0.00144888
0.00146309
0.0014783
0.00149678
0.00152062
0.00155032
0.00158579
0.00162531
0.00166705
0.00170837
0.00174748
0.00178266
0.00181376
0.00184102
0.00186613
0.00189069
0.00191702
0.00194655
0.00198063
0.0020192
0.00206198
0.00210739
0.00215412
0.00220023
0.00224474
0.00228663
0.00232621
0.00236386
0.00240106
0.00243892
0.00247912
0.00252237
0.0025695
0.00262014
0.00267403
0.00272991
0.00278705
0.00284416
0.00290093
0.00295682
0.00301243
0.00306809
0.00312508
0.00318404
0.00324623
0.0033119
0.00338171
0.00345525
0.00353256
0.00361278
0.00369584
0.00378103
0.00386866
0.00395856
0.00405164
0.0041482
0.00424941
0.00435553
0.00446741
0.00458468
0.00470745
0.00483449
0.00496511
0.00509734
0.00523
0.00536083
0.00548864
0.00561151
4.57928e-06
-1.08583e-05
-1.79126e-05
-1.82449e-05
-1.26757e-05
-3.33418e-06
8.9698e-06
2.23904e-05
3.63914e-05
4.94461e-05
6.11813e-05
7.03587e-05
7.68038e-05
7.95594e-05
7.86453e-05
7.33659e-05
6.40445e-05
5.04548e-05
3.34396e-05
1.33549e-05
-8.47513e-06
-3.12581e-05
-5.32689e-05
-7.33933e-05
-8.96765e-05
-0.000101064
-0.000105928
-0.000103812
-9.39057e-05
-7.67925e-05
-5.28551e-05
-2.38717e-05
8.62432e-06
4.18866e-05
7.38457e-05
0.000101533
0.00012312
0.000136425
0.000140852
0.000135914
0.000122889
0.00010328
8.01031e-05
5.62429e-05
3.54301e-05
2.05465e-05
1.45289e-05
1.88196e-05
3.41595e-05
5.95098e-05
9.29655e-05
0.000131107
0.000170343
0.000206464
0.000235969
0.000255827
0.000264634
0.000262059
0.000249804
0.000230635
0.000208735
0.000188363
0.000173987
0.000169054
0.000175947
0.000194949
0.000224892
0.000262503
0.000303844
0.00034399
0.000378628
0.000403849
0.00041769
0.00041957
0.000411372
0.000396188
0.000378715
0.000363622
0.000355637
0.000357913
0.000372289
0.000398162
0.000433414
0.000473881
0.000515096
0.000552088
0.000581104
0.000599433
0.000606717
0.000604226
0.000595342
0.000584256
0.000575859
0.000574231
0.000582515
0.000601715
0.000631165
0.000668022
0.000708518
0.000748023
0.000782512
0.000808704
0.000825264
0.000832468
0.000832665
0.000829282
0.00082665
0.000828654
0.000838521
0.000857693
0.000886087
0.000921619
0.000961201
0.00100083
0.00103692
0.00106644
0.00108807
0.00110184
0.00110965
0.00111434
0.00111957
0.00112863
0.00114424
0.00116757
0.00119854
0.00123533
0.00127537
0.00131534
0.00135236
0.00138407
0.00140958
0.00142911
0.00144442
0.00145786
0.00147242
0.00149058
0.00151434
0.00154428
0.00158009
0.00162007
0.00166212
0.00170362
0.00174257
0.00177738
0.00180779
0.00183428
0.00185849
0.0018823
0.00190797
0.00193711
0.00197096
0.00200955
0.00205236
0.00209787
0.00214451
0.00219042
0.00223442
0.00227564
0.0023143
0.00235098
0.00238711
0.00242403
0.00246333
0.00250588
0.00255237
0.00260251
0.00265583
0.00271114
0.00276746
0.00282361
0.0028791
0.00293355
0.00298742
0.00304126
0.00309622
0.00315313
0.00321309
0.00327653
0.00334385
0.00341476
0.003489
0.00356581
0.00364478
0.00372525
0.00380718
0.00389042
0.00397542
0.00406241
0.00415203
0.00424442
0.00433988
0.00443799
0.00453841
0.00464008
0.0047421
0.00484303
0.00494184
0.00503721
0.0051285
0.00521525
-4.96758e-07
-1.27976e-05
-1.82868e-05
-1.79357e-05
-1.22928e-05
-2.85365e-06
9.52178e-06
2.32787e-05
3.76125e-05
5.11826e-05
6.33493e-05
7.3043e-05
7.97874e-05
8.2768e-05
8.17262e-05
7.61799e-05
6.61944e-05
5.18097e-05
3.37047e-05
1.25236e-05
-1.0563e-05
-3.44607e-05
-5.75784e-05
-7.84545e-05
-9.52992e-05
-0.000106763
-0.000111379
-0.000108468
-9.74528e-05
-7.88643e-05
-5.33561e-05
-2.27331e-05
1.12296e-05
4.58073e-05
7.85602e-05
0.00010665
0.00012801
0.000140614
0.00014374
0.000137217
0.000122361
0.000101018
7.61971e-05
5.10952e-05
2.94421e-05
1.44519e-05
8.92638e-06
1.44623e-05
3.15098e-05
5.88412e-05
9.41754e-05
0.000134067
0.000174546
0.000211343
0.000240734
0.000259776
0.000267034
0.000262589
0.000248309
0.000227284
0.000203761
0.000182402
0.000167866
0.000163593
0.000171804
0.000192633
0.00022452
0.000264055
0.000306911
0.000348024
0.000382803
0.000407402
0.000419854
0.000419943
0.000409717
0.000392692
0.00037373
0.000357844
0.000349809
0.000352872
0.000368648
0.000396339
0.000433407
0.000475538
0.000517853
0.000555275
0.000583861
0.000601084
0.000606704
0.000602394
0.000591742
0.000579306
0.000570132
0.000568515
0.000577507
0.000598035
0.000629074
0.000667575
0.000709383
0.000749707
0.000784273
0.000809867
0.000825188
0.000830835
0.000829366
0.000824566
0.000820936
0.000822612
0.000832787
0.000852883
0.000882528
0.000919453
0.000960216
0.00100065
0.00103693
0.00106605
0.00108669
0.00109915
0.00110549
0.00110889
0.00111315
0.0011218
0.00113753
0.00116152
0.00119343
0.0012313
0.00127224
0.0013128
0.00134988
0.00138116
0.00140575
0.0014241
0.00143808
0.00145035
0.00146403
0.00148177
0.00150553
0.00153591
0.00157235
0.00161305
0.00165562
0.00169735
0.00173608
0.00177027
0.00179967
0.00182496
0.0018479
0.00187059
0.00189537
0.00192401
0.00195765
0.00199634
0.00203932
0.00208501
0.00213161
0.00217721
0.00222049
0.0022607
0.00229803
0.00233327
0.00236791
0.00240348
0.00244158
0.00248319
0.00252888
0.00257836
0.00263097
0.00268547
0.00274068
0.00279544
0.00284913
0.00290147
0.00295291
0.00300412
0.00305625
0.00311029
0.00316723
0.00322756
0.00329155
0.00335883
0.00342894
0.00350101
0.00357439
0.00364833
0.00372255
0.00379686
0.0038715
0.00394671
0.00402297
0.00410045
0.00417934
0.00425934
0.00434005
0.00442059
0.00450011
0.00457748
0.00465183
0.00472226
0.00478851
0.00485026
-8.08256e-06
-1.59974e-05
-1.88362e-05
-1.70894e-05
-1.10248e-05
-1.55084e-06
1.07452e-05
2.47044e-05
3.94191e-05
5.36116e-05
6.63804e-05
7.66766e-05
8.37986e-05
8.69931e-05
8.57625e-05
7.97284e-05
6.88257e-05
5.32983e-05
3.37131e-05
1.0957e-05
-1.38376e-05
-3.92851e-05
-6.37937e-05
-8.56494e-05
-0.00010305
-0.000114447
-0.00011848
-0.000114378
-0.000101759
-8.11828e-05
-5.35383e-05
-2.07219e-05
1.51964e-05
5.13842e-05
8.518e-05
0.000113632
0.000134492
0.000145889
0.000147171
0.000138427
0.000121089
9.73529e-05
7.04084e-05
4.37986e-05
2.13111e-05
6.42214e-06
1.88029e-06
9.20024e-06
2.85101e-05
5.84418e-05
9.63195e-05
0.000138443
0.000180452
0.000217938
0.000246982
0.000264722
0.000269837
0.000262806
0.000245739
0.000222194
0.000196763
0.00017442
0.000159857
0.000156624
0.000166697
0.000189977
0.000224515
0.000266575
0.000311381
0.000353594
0.000388368
0.00041191
0.000422382
0.000419959
0.000407018
0.000387535
0.000366733
0.00034997
0.000342114
0.000346403
0.00036416
0.000394301
0.000433838
0.000478098
0.000521764
0.000559555
0.00058741
0.000603001
0.000606343
0.000599528
0.000586535
0.000572371
0.00056234
0.000560911
0.000571024
0.000593405
0.000626638
0.00066733
0.000710863
0.00075215
0.000786684
0.000811304
0.000824865
0.000828327
0.000824599
0.000817909
0.000813056
0.00081442
0.000825176
0.000846619
0.000878048
0.000916876
0.000959233
0.00100067
0.00103709
0.00106553
0.00108473
0.00109531
0.00109964
0.00110127
0.00110433
0.00111252
0.00112858
0.00115356
0.00118685
0.00122622
0.00126839
0.00130966
0.00134675
0.00137732
0.00140057
0.00141721
0.00142938
0.00144007
0.00145263
0.0014699
0.00149381
0.00152488
0.00156229
0.00160398
0.00164727
0.00168926
0.00172763
0.00176089
0.00178886
0.00181247
0.00183368
0.00185488
0.00187857
0.00190662
0.00194011
0.00197901
0.00202233
0.00206828
0.00211483
0.00215996
0.00220226
0.00224103
0.00227655
0.00230984
0.00234251
0.00237631
0.0024129
0.00245333
0.00249806
0.00254674
0.00259847
0.00265189
0.00270565
0.00275852
0.00280982
0.00285934
0.00290756
0.00295532
0.00300381
0.00305413
0.00310727
0.00316369
0.0032235
0.00328624
0.00335122
0.00341744
0.00348402
0.00355017
0.00361548
0.00367978
0.0037433
0.00380639
0.00386953
0.00393304
0.00399713
0.00406159
0.00412604
0.00418972
0.0042518
0.00431131
0.00436753
0.00441986
0.00446801
0.00451176
-1.64971e-05
-2.05276e-05
-2.06118e-05
-1.70807e-05
-9.99408e-06
5.55518e-08
1.26988e-05
2.70467e-05
4.22431e-05
5.70793e-05
7.05103e-05
8.14543e-05
8.89921e-05
9.23342e-05
9.08056e-05
8.40714e-05
7.19881e-05
5.49294e-05
3.34584e-05
8.63528e-06
-1.83099e-05
-4.57549e-05
-7.19653e-05
-9.50004e-05
-0.000112968
-0.000124205
-0.00012735
-0.000121668
-0.000106922
-8.37694e-05
-5.33692e-05
-1.77965e-05
2.05593e-05
5.8679e-05
9.36157e-05
0.000122321
0.000142458
0.000152251
0.000151142
0.000139517
0.000119045
9.22993e-05
6.27712e-05
3.43515e-05
1.10669e-05
-3.50641e-06
-6.66886e-06
2.947e-06
2.51759e-05
5.83541e-05
9.93868e-05
0.000144171
0.000187966
0.000226113
0.000254544
0.000270523
0.000272946
0.000262633
0.000242123
0.0002155
0.000187783
0.000164307
0.000149889
0.000148079
0.000160584
0.000186997
0.000224886
0.000270041
0.000317166
0.000360565
0.000395163
0.000417224
0.00042514
0.000419493
0.000403147
0.000380641
0.00035767
0.000339966
0.000332515
0.000338467
0.000358822
0.000392091
0.000434731
0.000481545
0.000526745
0.000564798
0.000591587
0.000605003
0.0006054
0.000595393
0.00057951
0.000563284
0.000552355
0.000551328
0.000563
0.000587819
0.000623897
0.000667323
0.000712937
0.000755266
0.000789589
0.000812814
0.000824032
0.000824634
0.000818037
0.000809012
0.000802754
0.000803881
0.000815535
0.000838813
0.000872611
0.00091387
0.000958201
0.00100077
0.00103723
0.00106463
0.00108187
0.00108994
0.00109167
0.00109111
0.00109273
0.00110049
0.00111711
0.00114349
0.00117866
0.00121995
0.00126367
0.00130575
0.00134271
0.00137222
0.00139362
0.00140797
0.00141779
0.00142651
0.00143776
0.00145456
0.00147881
0.00151087
0.00154959
0.00159257
0.00163674
0.00167896
0.00171675
0.00174869
0.00177474
0.00179613
0.00181515
0.00183451
0.00185691
0.00188431
0.00191775
0.00195699
0.00200079
0.00204707
0.00209352
0.00213796
0.00217892
0.00221578
0.00224897
0.00227975
0.00230998
0.0023416
0.00237638
0.0024154
0.00245902
0.00250672
0.00255738
0.00260944
0.00266136
0.00271181
0.00276007
0.00280604
0.00285027
0.00289378
0.00293787
0.00298374
0.00303236
0.0030842
0.00313919
0.00319675
0.00325596
0.00331569
0.00337491
0.00343279
0.0034889
0.00354315
0.00359586
0.00364752
0.00369873
0.00374993
0.00380138
0.00385295
0.00390428
0.00395464
0.00400324
0.00404925
0.00409202
0.004131
0.00416594
0.00419667
-2.48908e-05
-2.61046e-05
-2.38127e-05
-1.83562e-05
-9.77543e-06
1.47313e-06
1.51051e-05
3.03303e-05
4.63165e-05
6.19335e-05
7.60627e-05
8.76202e-05
9.55169e-05
9.88929e-05
9.69227e-05
8.9259e-05
7.57182e-05
5.67465e-05
3.29688e-05
5.59738e-06
-2.39718e-05
-5.38859e-05
-8.21594e-05
-0.00010663
-0.00012524
-0.000136229
-0.000138226
-0.000130556
-0.000113126
-8.67699e-05
-5.29527e-05
-1.40147e-05
2.72976e-05
6.76943e-05
0.000103931
0.000132839
0.000152006
0.000159761
0.0001557
0.000140528
0.000116245
8.58739e-05
5.32915e-05
2.2774e-05
-1.39533e-06
-1.54923e-05
-1.68932e-05
-4.42695e-06
2.14004e-05
5.85069e-05
0.000103301
0.000151201
0.000197032
0.000235836
0.000263442
0.000277219
0.000276342
0.000262047
0.000237426
0.000207145
0.000176754
0.000151986
0.000137848
0.000137834
0.000153371
0.000183617
0.000225557
0.000274371
0.000324183
0.000368867
0.000403129
0.000423303
0.000428057
0.000418474
0.000398034
0.000371948
0.000346472
0.000327755
0.000320908
0.000328967
0.000352557
0.000389642
0.000435994
0.000485785
0.000532692
0.000570905
0.000596276
0.000606936
0.000603693
0.000589817
0.000570503
0.0005519
0.000540027
0.000539625
0.000553332
0.000581215
0.000620788
0.000667481
0.000715502
0.00075893
0.000792833
0.000814195
0.000822428
0.00081948
0.000809411
0.000797625
0.000789795
0.000790782
0.00080369
0.000829333
0.000866095
0.000910306
0.00095697
0.00100078
0.00103714
0.00106308
0.00107777
0.00108269
0.00108124
0.00107804
0.00107802
0.0010854
0.00110287
0.00113108
0.00116862
0.00121228
0.00125782
0.00130077
0.00133741
0.00136543
0.00138443
0.00139589
0.00140284
0.0014092
0.00141895
0.00143531
0.00146012
0.00149349
0.00153387
0.0015784
0.00162357
0.00166594
0.00170289
0.00173305
0.00175664
0.00177528
0.00179164
0.00180882
0.00182975
0.00185648
0.00188994
0.00192967
0.00197406
0.00202069
0.00206694
0.00211044
0.00214966
0.0021841
0.00221442
0.00224215
0.00226944
0.00229849
0.00233117
0.00236857
0.00241092
0.00245748
0.00250686
0.00255726
0.00260692
0.00265443
0.00269905
0.00274077
0.00278032
0.00281888
0.00285792
0.00289876
0.00294241
0.00298925
0.00303911
0.00309122
0.00314449
0.00319762
0.0032495
0.00329924
0.00334647
0.00339121
0.00343393
0.00347527
0.00351597
0.00355661
0.00359751
0.0036386
0.00367948
0.00371948
0.00375784
0.00379374
0.0038265
0.00385561
0.0038808
0.00390202
-3.30077e-05
-3.23956e-05
-2.82515e-05
-2.09574e-05
-1.06167e-05
2.31245e-06
1.74925e-05
3.41531e-05
5.14129e-05
6.81397e-05
8.31536e-05
9.53397e-05
0.000103521
0.000106775
0.000104181
9.5348e-05
8.00695e-05
5.88204e-05
3.23192e-05
1.93672e-06
-3.07386e-05
-6.35841e-05
-9.43366e-05
-0.000120554
-0.000139978
-0.000150702
-0.000151344
-0.000141295
-0.000120649
-9.04629e-05
-5.25322e-05
-9.5594e-06
3.53141e-05
7.84187e-05
0.000116206
0.000145317
0.000163283
0.000168544
0.000160941
0.000141524
0.000112737
7.80826e-05
4.1915e-05
8.94981e-06
-1.62117e-05
-2.97073e-05
-2.89857e-05
-1.31073e-05
1.70115e-05
5.87687e-05
0.000107981
0.000159504
0.000207662
0.000247179
0.000273753
0.000284875
0.00028005
0.000261053
0.000231615
0.00019708
0.000163601
0.000137369
0.000123601
0.000125735
0.000144888
0.000179665
0.000226364
0.000279431
0.000332331
0.000378445
0.00041225
0.000430138
0.000431126
0.000416894
0.000391666
0.000361416
0.000333065
0.000313216
0.000307144
0.000317746
0.000345189
0.000386761
0.000437445
0.000490666
0.000539496
0.000577795
0.000601382
0.000608696
0.000601125
0.000582703
0.00055941
0.000538085
0.000525194
0.000525633
0.000541845
0.000573405
0.000617108
0.000667602
0.000718367
0.000762967
0.000796232
0.000815255
0.000819869
0.000812693
0.000798549
0.000783573
0.00077398
0.000774914
0.000789419
0.000817939
0.000858237
0.00090591
0.000955252
0.00100041
0.00103649
0.00106057
0.00107215
0.00107328
0.00106806
0.0010618
0.00105995
0.00106698
0.00108555
0.00111601
0.00115638
0.00120282
0.00125042
0.00129427
0.00133038
0.0013565
0.00137256
0.00138054
0.0013841
0.00138772
0.00139581
0.00141175
0.00143731
0.00147227
0.00151462
0.00156092
0.00160718
0.00164959
0.00168539
0.00171334
0.00173395
0.0017493
0.00176255
0.00177721
0.00179648
0.0018225
0.00185605
0.00189636
0.00194142
0.0019884
0.00203432
0.0020766
0.00211368
0.00214521
0.0021721
0.00219625
0.00222015
0.00224624
0.00227654
0.00231211
0.00235302
0.00239829
0.0024462
0.00249466
0.00254171
0.00258581
0.00262626
0.00266317
0.00269746
0.00273056
0.00276411
0.0027996
0.00283804
0.00287978
0.00292452
0.0029713
0.00301883
0.00306566
0.00311057
0.00315269
0.00319168
0.00322772
0.00326143
0.00329365
0.00332528
0.00335702
0.00338925
0.00342194
0.00345471
0.00348685
0.00351754
0.00354588
0.00357118
0.0035929
0.00361084
0.00362498
-4.09118e-05
-3.91626e-05
-3.36142e-05
-2.46429e-05
-1.24699e-05
2.41093e-06
1.95405e-05
3.80988e-05
5.71002e-05
7.53384e-05
9.15368e-05
0.000104501
0.000113002
0.000116042
0.000112665
0.000102428
8.51313e-05
6.1271e-05
3.16718e-05
-2.14999e-06
-3.83716e-05
-7.45984e-05
-0.000108252
-0.000136575
-0.000157065
-0.000167626
-0.000166834
-0.000154131
-0.000129834
-9.52447e-05
-5.25258e-05
-4.80088e-06
4.43106e-05
9.06789e-05
0.000130375
0.00015981
0.000176446
0.000178844
0.0001671
0.000142718
0.000108661
6.89924e-05
2.86183e-05
-7.20121e-06
-3.35213e-05
-4.63453e-05
-4.31834e-05
-2.33577e-05
1.17465e-05
5.89064e-05
0.000113256
0.000168983
0.000219845
0.000260184
0.000285564
0.000293602
0.000284205
0.000259772
0.000224777
0.000185335
0.000148292
0.000120351
0.000106972
0.000111556
0.000134856
0.000174849
0.000227026
0.000284995
0.000341453
0.000389223
0.00042251
0.000437766
0.000434417
0.000414836
0.000384097
0.000349053
0.000317386
0.000296223
0.000291035
0.000304554
0.000336421
0.000383142
0.000438802
0.000495956
0.000546983
0.000585347
0.00060684
0.000610272
0.000597713
0.000574062
0.000546204
0.000521754
0.000507705
0.000509131
0.000528244
0.000564037
0.000612482
0.000667322
0.00072121
0.000767108
0.000799581
0.00081586
0.000816282
0.00080423
0.000785405
0.000766772
0.000755173
0.000756065
0.000772422
0.000804249
0.000848595
0.000900214
0.000952587
0.000999228
0.00103493
0.0010568
0.00106476
0.00106152
0.00105199
0.00104224
0.0010383
0.00104495
0.00106482
0.00109785
0.00114145
0.001191
0.0012409
0.00128567
0.00132108
0.00134494
0.00135757
0.00136155
0.00136124
0.00136175
0.00136796
0.00138344
0.00140987
0.00144666
0.0014912
0.00153945
0.00158684
0.00162918
0.00166357
0.0016889
0.00170607
0.00171764
0.00172733
0.00173914
0.00175654
0.00178176
0.00181539
0.00185633
0.0019021
0.00194939
0.00199483
0.00203564
0.00207022
0.00209838
0.00212136
0.00214145
0.00216151
0.00218428
0.00221191
0.00224545
0.00228477
0.0023286
0.00237488
0.00242121
0.00246537
0.00250575
0.00254165
0.00257336
0.00260203
0.00262934
0.00265719
0.0026872
0.00272046
0.00275726
0.00279713
0.00283894
0.00288118
0.00292225
0.00296082
0.002996
0.00302754
0.00305577
0.00308149
0.00310577
0.00312966
0.00315398
0.00317923
0.00320536
0.00323196
0.00325821
0.00328317
0.00330587
0.00332554
0.00334166
0.00335407
0.00336281
-4.87889e-05
-4.62871e-05
-3.96015e-05
-2.91073e-05
-1.51088e-05
1.83239e-06
2.11327e-05
4.18904e-05
6.29796e-05
8.30811e-05
0.00010077
0.000114742
0.00012369
0.000126545
0.000122318
0.000110532
9.09966e-05
6.42468e-05
3.1227e-05
-6.39853e-06
-4.65584e-05
-8.65828e-05
-0.000123541
-0.00015436
-0.000176223
-0.000186841
-0.000184687
-0.000169246
-0.000140988
-0.000101561
-5.34765e-05
-3.27056e-07
5.37193e-05
0.000103999
0.000146117
0.000176189
0.00019156
0.000190893
0.000174573
0.000144557
0.000104432
5.89187e-05
1.36225e-05
-2.56029e-05
-5.34108e-05
-6.56141e-05
-5.98135e-05
-3.55965e-05
5.12446e-06
5.84398e-05
0.000118703
0.000179327
0.000233399
0.0002748
0.000298938
0.000303585
0.000289073
0.000258489
0.000217156
0.00017206
0.00013086
0.000100848
8.77836e-05
9.50141e-05
0.000122916
0.000168759
0.000227143
0.000290715
0.000351296
0.000401048
0.000433861
0.000446247
0.000438072
0.000412475
0.000375487
0.000334958
0.000299445
0.000276682
0.000272369
0.000289069
0.000325845
0.000378345
0.000439632
0.00050128
0.000554864
0.000593395
0.000612617
0.000611742
0.000593587
0.00056403
0.000530966
0.000502906
0.000487441
0.000489854
0.000512122
0.000552603
0.00060635
0.000666093
0.000723543
0.000770976
0.000802644
0.000815917
0.00081168
0.000794166
0.000770058
0.000747251
0.000733302
0.000734024
0.000752333
0.000787759
0.000836566
0.000892572
0.000948342
0.000996678
0.001032
0.00105146
0.00105541
0.00104732
0.00103296
0.00101926
0.00101292
0.00101907
0.00104027
0.00107607
0.00112316
0.00117611
0.00122852
0.00127429
0.0013089
0.00133026
0.00133908
0.00133862
0.00133398
0.001331
0.00133506
0.00134996
0.00137726
0.00141596
0.00146283
0.00151316
0.00156173
0.00160394
0.00163673
0.00165915
0.00167247
0.00167983
0.00168556
0.00169415
0.00170941
0.00173364
0.00176727
0.0018088
0.00185526
0.00190283
0.0019477
0.00198685
0.00201864
0.00204308
0.00206174
0.00207735
0.00209316
0.00211226
0.00213694
0.00216824
0.00220583
0.00224811
0.00229268
0.00233677
0.00237793
0.00241443
0.00244561
0.00247194
0.00249482
0.00251623
0.00253834
0.00256295
0.0025912
0.00262334
0.00265876
0.00269611
0.00273366
0.00276964
0.00280259
0.00283161
0.00285655
0.00287788
0.00289662
0.00291402
0.00293137
0.00294963
0.00296933
0.00299041
0.00301234
0.00303418
0.00305485
0.00307329
0.00308865
0.00310043
0.00310848
0.00311292
-5.67424e-05
-5.36902e-05
-4.60127e-05
-3.41078e-05
-1.8312e-05
7.13044e-07
2.22891e-05
4.53897e-05
6.87686e-05
9.09636e-05
0.000110399
0.000125619
0.000135162
0.000137935
0.000132898
0.000119537
9.76565e-05
6.78499e-05
3.11707e-05
-1.05332e-05
-5.49626e-05
-9.91379e-05
-0.000139781
-0.000173466
-0.000197054
-0.000208024
-0.000204712
-0.000186614
-0.000154325
-0.000109775
-5.59221e-05
3.17589e-06
6.27851e-05
0.000117638
0.000162809
0.000194027
0.000208455
0.0002048
0.000183721
0.000147659
0.000100782
4.861e-05
-2.46832e-06
-4.58786e-05
-7.57568e-05
-8.76427e-05
-7.91917e-05
-5.03456e-05
-3.52664e-06
5.6632e-05
0.000123612
0.000189939
0.000247891
0.000290805
0.000313864
0.000314991
0.000294975
0.000257619
0.000209169
0.000157605
0.000111523
7.89234e-05
6.59301e-05
7.58374e-05
0.000108634
0.000160851
0.000226125
0.000296029
0.000361388
0.000413592
0.000446143
0.000455593
0.000442254
0.000410073
0.000366128
0.000319378
0.000279385
0.000254586
0.000250966
0.000270931
0.000312961
0.000371777
0.00043933
0.000506087
0.000562711
0.000601675
0.000618636
0.000613191
0.00058895
0.000552848
0.000513904
0.000481643
0.000464346
0.000467556
0.000493039
0.0005385
0.000598015
0.000663202
0.000724718
0.000774055
0.000805089
0.000815288
0.000806094
0.000782641
0.000752674
0.000725128
0.000708366
0.000708625
0.000728788
0.000767919
0.000821459
0.000882218
0.000941758
0.00099208
0.00102717
0.00104418
0.00104392
0.0010306
0.00101095
0.000992843
0.000983708
0.000989068
0.00101147
0.00105005
0.00110077
0.00115731
0.00121242
0.00125934
0.0012932
0.00131196
0.00131675
0.0013115
0.00130214
0.00129525
0.0012968
0.00131085
0.00133886
0.00137941
0.00142866
0.00148113
0.00153096
0.00157306
0.00160419
0.00162352
0.00163272
0.00163553
0.00163689
0.00164186
0.00165463
0.00167759
0.00171103
0.00175305
0.00180015
0.00184795
0.00189221
0.00192961
0.00195847
0.00197896
0.00199301
0.00200379
0.00201502
0.00203011
0.00205156
0.0020804
0.00211612
0.0021568
0.00219965
0.00224154
0.00227974
0.0023124
0.0023389
0.00235986
0.00237697
0.00239254
0.00240899
0.00242835
0.00245186
0.00247971
0.00251115
0.00254461
0.00257815
0.00260976
0.00263788
0.00266158
0.00268077
0.00269609
0.00270878
0.00272033
0.0027322
0.00274549
0.00276076
0.00277789
0.00279626
0.00281478
0.00283223
0.00284741
0.00285944
0.00286778
0.00287232
0.00287321
-6.47747e-05
-6.12844e-05
-5.2718e-05
-3.94611e-05
-2.19209e-05
-8.19621e-07
2.30394e-05
4.85297e-05
7.4275e-05
9.86746e-05
0.000119983
0.000136589
0.000146928
0.000149777
0.000144035
0.000129154
0.000104945
7.20407e-05
3.16071e-05
-1.43445e-05
-6.32612e-05
-0.000111858
-0.000156493
-0.00019338
-0.000219046
-0.000230706
-0.000226536
-0.000206005
-0.000169815
-0.000120136
-6.03053e-05
5.06945e-06
7.07063e-05
0.000130716
0.000179586
0.000212586
0.000226607
0.000220331
0.000194628
0.000152375
9.83823e-05
3.89328e-05
-1.87545e-05
-6.72668e-05
-0.000100063
-0.000112279
-0.000101516
-6.80182e-05
-1.48419e-05
5.26678e-05
0.000127078
0.000199923
0.000262567
0.000307679
0.000330114
0.000327864
0.000302196
0.000257646
0.00020142
0.000142589
9.08022e-05
5.48977e-05
4.14686e-05
5.38364e-05
9.1566e-05
0.000150474
0.000223184
0.000300122
0.00037099
0.000426287
0.000459011
0.000465696
0.000447092
0.000407948
0.000356443
0.000302743
0.000257534
0.000230083
0.000226757
0.000249837
0.000297244
0.000362751
0.000437134
0.000509643
0.000569911
0.000609755
0.000624683
0.00061463
0.000583995
0.000540813
0.000495328
0.000458185
0.000438477
0.000442088
0.000470613
0.000521129
0.000586719
0.000657818
0.000723937
0.00077567
0.000806425
0.000813702
0.000799463
0.000769749
0.00073343
0.000700561
0.000680416
0.00067975
0.000701473
0.000744208
0.000802575
0.000868341
0.000932
0.00098467
0.00101982