/*--------------------------------*- C++ -*----------------------------------*\
| =========                 |                                                 |
| \\      /  F ield         | OpenFOAM: The Open Source CFD Toolbox           |
|  \\    /   O peration     | Version:  v1912                                 |
|   \\  /    A nd           | Website:  www.openfoam.com                      |
|    \\/     M anipulation  |                                                 |
\*---------------------------------------------------------------------------*/
FoamFile
{
    version     2.0;
    format      ascii;
    class       surfaceScalarField;
    location    "0.4";
    object      phi;
}
// * * * * * * * * * * * * * * * * * * * * * * * * * * * * * * * * * * * * * //

dimensions      [0 3 -1 0 0 0 0];
oriented        oriented;


internalField   nonuniform List<scalar> 
23660
(
3.87646e-06
8.3034e-10
3.87652e-06
-9.77953e-10
3.87649e-06
8.4008e-10
3.87642e-06
-8.74654e-10
3.87636e-06
8.65708e-10
3.87631e-06
-8.34235e-10
3.87627e-06
8.58519e-10
3.87624e-06
-8.14093e-10
3.87624e-06
8.42002e-10
3.87623e-06
-8.00748e-10
3.87623e-06
8.21306e-10
3.87624e-06
-7.94549e-10
3.87625e-06
7.92552e-10
3.87627e-06
-7.96321e-10
3.8763e-06
7.56405e-10
3.87633e-06
-8.03402e-10
3.87637e-06
7.17505e-10
3.87642e-06
-8.07664e-10
3.87646e-06
6.82056e-10
3.87649e-06
-8.1487e-10
3.87651e-06
6.56843e-10
3.87654e-06
-8.05225e-10
3.87655e-06
6.47984e-10
3.87656e-06
-7.76864e-10
3.87654e-06
6.54498e-10
3.87654e-06
-7.32548e-10
3.8765e-06
6.717e-10
3.87647e-06
-6.83462e-10
3.87641e-06
6.88462e-10
3.87638e-06
-6.37286e-10
3.87631e-06
7.01821e-10
3.87628e-06
-6.03652e-10
3.87623e-06
7.07021e-10
3.87621e-06
-5.84402e-10
3.87617e-06
6.92811e-10
3.87616e-06
-5.80973e-10
3.87613e-06
6.6465e-10
3.87615e-06
-5.87389e-10
3.87613e-06
6.32021e-10
3.87614e-06
-5.94337e-10
3.87612e-06
5.96441e-10
3.87613e-06
-6.04188e-10
3.8761e-06
5.78362e-10
3.87611e-06
-5.91422e-10
3.87606e-06
5.79255e-10
3.87605e-06
-5.61464e-10
3.876e-06
5.91801e-10
3.87597e-06
-5.24874e-10
3.8759e-06
6.07317e-10
3.87588e-06
-4.89611e-10
3.87581e-06
6.21795e-10
3.8758e-06
-4.68119e-10
3.87573e-06
6.17557e-10
3.87572e-06
-4.61389e-10
3.87567e-06
5.99336e-10
3.87567e-06
-4.633e-10
3.87563e-06
5.74905e-10
3.87563e-06
-4.70324e-10
3.87558e-06
5.44658e-10
3.87558e-06
-4.74211e-10
3.87552e-06
5.3451e-10
3.87552e-06
-4.5927e-10
3.87545e-06
5.38344e-10
3.87543e-06
-4.32076e-10
3.87536e-06
5.50947e-10
3.87533e-06
-4.01653e-10
3.87525e-06
5.64764e-10
3.87523e-06
-3.8125e-10
3.87516e-06
5.66282e-10
3.87514e-06
-3.71479e-10
3.87507e-06
5.54904e-10
3.87506e-06
-3.70953e-10
3.87499e-06
5.34864e-10
3.87498e-06
-3.75245e-10
3.87491e-06
5.1203e-10
3.87491e-06
-3.76019e-10
3.87483e-06
5.04495e-10
3.87482e-06
-3.62836e-10
3.87474e-06
5.08487e-10
3.87472e-06
-3.40507e-10
3.87463e-06
5.20684e-10
3.8746e-06
-3.18359e-10
3.87451e-06
5.28651e-10
3.87449e-06
-3.04501e-10
3.8744e-06
5.27146e-10
3.87438e-06
-2.98871e-10
3.87429e-06
5.16246e-10
3.87427e-06
-2.98865e-10
3.87419e-06
5.00553e-10
3.87417e-06
-2.98326e-10
3.87408e-06
4.88957e-10
3.87406e-06
-2.91674e-10
3.87397e-06
4.89256e-10
3.87394e-06
-2.76809e-10
3.87384e-06
4.98118e-10
3.87381e-06
-2.59763e-10
3.87371e-06
5.05962e-10
3.87368e-06
-2.46493e-10
3.87357e-06
5.07951e-10
3.87354e-06
-2.39055e-10
3.87344e-06
5.03603e-10
3.87341e-06
-2.35814e-10
3.8733e-06
4.95375e-10
3.87327e-06
-2.3309e-10
3.87317e-06
4.88309e-10
3.87314e-06
-2.2709e-10
3.87303e-06
4.87906e-10
3.87299e-06
-2.15974e-10
3.87288e-06
4.93794e-10
3.87284e-06
-2.02642e-10
3.87272e-06
5.00679e-10
3.87268e-06
-1.90999e-10
3.87256e-06
5.0451e-10
3.87252e-06
-1.83009e-10
3.8724e-06
5.04168e-10
3.87236e-06
-1.77761e-10
3.87223e-06
5.01121e-10
3.87219e-06
-1.72888e-10
3.87206e-06
4.98651e-10
3.87202e-06
-1.6601e-10
3.87189e-06
5.00118e-10
3.87185e-06
-1.56073e-10
3.87171e-06
5.05726e-10
3.87166e-06
-1.44653e-10
3.87152e-06
5.1268e-10
3.87147e-06
-1.34107e-10
3.87133e-06
5.18182e-10
3.87127e-06
-1.25669e-10
3.87113e-06
5.21152e-10
3.87107e-06
-1.18736e-10
3.87092e-06
5.22509e-10
3.87087e-06
-1.11791e-10
3.87071e-06
5.24464e-10
3.87066e-06
-1.03386e-10
3.8705e-06
5.29175e-10
3.87044e-06
-9.30773e-11
3.87028e-06
5.36858e-10
3.87021e-06
-8.18648e-11
3.87004e-06
5.45773e-10
3.86998e-06
-7.11971e-11
3.8698e-06
5.5409e-10
3.86974e-06
-6.16185e-11
3.86955e-06
5.61195e-10
3.86949e-06
-5.25589e-11
3.8693e-06
5.67876e-10
3.86923e-06
-4.29698e-11
3.86904e-06
5.75705e-10
3.86896e-06
-3.21431e-11
3.86876e-06
5.85938e-10
3.86869e-06
-2.02483e-11
3.86848e-06
5.98511e-10
3.8684e-06
-8.35487e-12
3.86818e-06
6.12077e-10
3.8681e-06
4.15298e-12
3.86788e-06
6.2511e-10
3.86779e-06
2.08481e-11
3.86756e-06
6.37403e-10
3.86747e-06
3.64057e-11
3.86723e-06
6.50058e-10
3.86714e-06
5.25232e-11
3.86689e-06
6.64312e-10
3.86679e-06
6.9914e-11
3.86653e-06
6.80833e-10
3.86642e-06
8.86747e-11
3.86616e-06
6.99335e-10
3.86605e-06
1.08373e-10
3.86577e-06
7.18836e-10
3.86565e-06
1.28373e-10
3.86536e-06
7.38736e-10
3.86523e-06
1.49034e-10
3.86493e-06
7.59351e-10
3.86478e-06
1.70465e-10
3.86447e-06
7.81471e-10
3.86431e-06
1.93597e-10
3.86398e-06
8.06123e-10
3.86381e-06
2.19141e-10
3.86347e-06
8.34046e-10
3.86328e-06
2.47575e-10
3.86292e-06
8.65605e-10
3.86271e-06
2.79242e-10
3.86232e-06
9.01031e-10
3.8621e-06
3.14607e-10
3.86168e-06
9.40772e-10
3.86143e-06
3.54497e-10
3.86099e-06
9.85811e-10
3.86072e-06
4.00333e-10
3.86024e-06
1.03805e-09
3.85993e-06
4.54593e-10
3.85941e-06
1.10096e-09
3.85906e-06
5.21844e-10
3.85848e-06
1.18211e-09
3.85806e-06
6.13844e-10
3.85739e-06
1.30445e-09
3.85686e-06
7.62701e-10
3.85601e-06
1.51907e-09
3.85527e-06
1.02904e-09
3.8541e-06
1.90111e-09
3.85298e-06
1.50457e-09
3.85129e-06
2.55496e-09
1.95962e-09
3.85001e-06
4.18596e-06
7.27873e-10
4.18583e-06
-8.50678e-10
4.18588e-06
7.91467e-10
4.18574e-06
-7.30938e-10
4.18578e-06
8.2597e-10
4.18564e-06
-6.91015e-10
4.18569e-06
8.07144e-10
4.18556e-06
-6.86829e-10
4.18563e-06
7.72219e-10
4.18552e-06
-6.91617e-10
4.18561e-06
7.31948e-10
4.18552e-06
-7.07535e-10
4.18564e-06
6.79162e-10
4.18558e-06
-7.38399e-10
4.18572e-06
6.1837e-10
4.18569e-06
-7.76237e-10
4.18584e-06
5.62298e-10
4.18584e-06
-8.02785e-10
4.186e-06
5.22276e-10
4.18599e-06
-8.0549e-10
4.18614e-06
5.11288e-10
4.18611e-06
-7.75102e-10
4.18622e-06
5.31852e-10
4.18616e-06
-7.10827e-10
4.18623e-06
5.80478e-10
4.18612e-06
-6.24174e-10
4.18615e-06
6.43804e-10
4.18601e-06
-5.41582e-10
4.186e-06
6.97055e-10
4.18584e-06
-4.7905e-10
4.18582e-06
7.20815e-10
4.18567e-06
-4.51061e-10
4.18567e-06
7.06279e-10
4.18554e-06
-4.59075e-10
4.18558e-06
6.58429e-10
4.18549e-06
-4.92154e-10
4.18556e-06
5.93013e-10
4.18551e-06
-5.35922e-10
4.18561e-06
5.36586e-10
4.18557e-06
-5.63108e-10
4.18567e-06
5.03438e-10
4.18562e-06
-5.60267e-10
4.1857e-06
5.05442e-10
4.18562e-06
-5.19719e-10
4.18566e-06
5.3992e-10
4.18556e-06
-4.5354e-10
4.18556e-06
5.89777e-10
4.18543e-06
-3.91494e-10
4.1854e-06
6.28203e-10
4.18527e-06
-3.51594e-10
4.18525e-06
6.34005e-10
4.18513e-06
-3.47665e-10
4.18515e-06
6.04348e-10
4.18505e-06
-3.68041e-10
4.1851e-06
5.57484e-10
4.18503e-06
-3.98743e-10
4.18509e-06
5.16318e-10
4.18503e-06
-4.15862e-10
4.18508e-06
4.94615e-10
4.18502e-06
-4.07458e-10
4.18505e-06
5.04367e-10
4.18496e-06
-3.68066e-10
4.18496e-06
5.37787e-10
4.18484e-06
-3.16013e-10
4.18482e-06
5.74675e-10
4.18469e-06
-2.76723e-10
4.18467e-06
5.89426e-10
4.18455e-06
-2.64331e-10
4.18455e-06
5.72442e-10
4.18445e-06
-2.74103e-10
4.18446e-06
5.40365e-10
4.18439e-06
-2.93924e-10
4.18441e-06
5.09835e-10
4.18434e-06
-3.05629e-10
4.18436e-06
4.93388e-10
4.18428e-06
-2.97058e-10
4.18428e-06
5.02336e-10
4.18418e-06
-2.65199e-10
4.18416e-06
5.2843e-10
4.18405e-06
-2.26604e-10
4.18402e-06
5.54473e-10
4.1839e-06
-1.99631e-10
4.18387e-06
5.58554e-10
4.18376e-06
-1.93562e-10
4.18374e-06
5.42157e-10
4.18364e-06
-2.01189e-10
4.18364e-06
5.19502e-10
4.18356e-06
-2.1241e-10
4.18355e-06
5.02382e-10
4.18347e-06
-2.1161e-10
4.18345e-06
5.01314e-10
4.18336e-06
-1.94098e-10
4.18333e-06
5.16957e-10
4.18322e-06
-1.64797e-10
4.18318e-06
5.38956e-10
4.18306e-06
-1.39121e-10
4.18301e-06
5.48892e-10
4.18289e-06
-1.27208e-10
4.18286e-06
5.42938e-10
4.18275e-06
-1.27995e-10
4.18272e-06
5.30054e-10
4.18262e-06
-1.32754e-10
4.18259e-06
5.19166e-10
4.18249e-06
-1.31388e-10
4.18246e-06
5.18619e-10
4.18235e-06
-1.1851e-10
4.18231e-06
5.29893e-10
4.18219e-06
-9.66084e-11
4.18214e-06
5.46417e-10
4.18201e-06
-7.55401e-11
4.18196e-06
5.56653e-10
4.18183e-06
-6.26806e-11
4.18178e-06
5.56899e-10
4.18165e-06
-5.88246e-11
4.1816e-06
5.51604e-10
4.18148e-06
-5.78816e-11
4.18144e-06
5.47405e-10
4.18132e-06
-5.31928e-11
4.18127e-06
5.50277e-10
4.18114e-06
-4.09649e-11
4.18108e-06
5.60994e-10
4.18095e-06
-2.27282e-11
4.18088e-06
5.74895e-10
4.18074e-06
-4.87798e-12
4.18067e-06
5.85085e-10
4.18052e-06
8.74261e-12
4.18045e-06
5.89123e-10
4.18031e-06
1.65321e-11
4.18024e-06
5.8985e-10
4.1801e-06
2.26227e-11
4.18003e-06
5.92049e-10
4.17989e-06
3.11195e-11
4.17981e-06
5.99504e-10
4.17966e-06
4.46019e-11
4.17958e-06
6.1218e-10
4.17943e-06
6.22358e-11
4.17934e-06
6.2668e-10
4.17917e-06
8.00512e-11
4.17908e-06
6.3911e-10
4.17891e-06
9.48506e-11
4.17882e-06
6.48214e-10
4.17865e-06
1.06722e-10
4.17856e-06
6.55933e-10
4.17839e-06
1.18202e-10
4.17829e-06
6.6546e-10
4.17811e-06
1.32212e-10
4.17801e-06
6.78856e-10
4.17783e-06
1.50003e-10
4.17772e-06
6.95719e-10
4.17753e-06
1.70375e-10
4.17741e-06
7.1387e-10
4.17721e-06
1.90996e-10
4.17709e-06
7.31541e-10
4.17689e-06
2.10571e-10
4.17676e-06
7.48864e-10
4.17656e-06
2.29691e-10
4.17643e-06
7.66936e-10
4.17621e-06
2.49652e-10
4.17608e-06
7.87117e-10
4.17586e-06
2.7214e-10
4.17571e-06
8.10482e-10
4.17548e-06
2.97736e-10
4.17533e-06
8.36764e-10
4.17509e-06
3.25629e-10
4.17492e-06
8.64796e-10
4.17468e-06
3.54582e-10
4.1745e-06
8.93778e-10
4.17425e-06
3.84136e-10
4.17406e-06
9.23862e-10
4.1738e-06
4.14921e-10
4.1736e-06
9.56122e-10
4.17332e-06
4.48153e-10
4.17311e-06
9.91988e-10
4.17282e-06
4.85324e-10
4.17259e-06
1.03266e-09
4.17228e-06
5.27292e-10
4.17204e-06
1.07861e-09
4.17171e-06
5.74306e-10
4.17145e-06
1.12999e-09
4.1711e-06
6.26636e-10
4.17081e-06
1.1874e-09
4.17044e-06
6.85355e-10
4.17013e-06
1.25255e-09
4.16973e-06
7.52748e-10
4.16939e-06
1.32824e-09
4.16896e-06
8.31998e-10
4.16858e-06
1.41873e-09
4.1681e-06
9.31453e-10
4.16766e-06
1.53876e-09
4.16712e-06
1.06735e-09
4.16659e-06
1.70712e-09
4.16595e-06
1.25655e-09
4.16532e-06
1.94055e-09
4.16456e-06
1.5192e-09
4.16382e-06
2.25817e-09
4.16297e-06
1.87735e-09
4.1622e-06
2.67609e-09
4.16136e-06
2.34228e-09
4.16074e-06
3.17577e-09
2.82036e-09
4.15988e-06
4.5202e-06
5.88566e-10
4.5199e-06
-5.53209e-10
4.52008e-06
6.12965e-10
4.51983e-06
-4.77901e-10
4.52002e-06
6.40394e-10
4.51976e-06
-4.40802e-10
4.51994e-06
6.27347e-10
4.5197e-06
-4.46539e-10
4.5199e-06
5.8114e-10
4.51967e-06
-4.6915e-10
4.51988e-06
5.22171e-10
4.51969e-06
-5.11032e-10
4.51992e-06
4.46312e-10
4.51975e-06
-5.71554e-10
4.52001e-06
3.60556e-10
4.51987e-06
-6.34733e-10
4.52015e-06
2.85833e-10
4.52002e-06
-6.76465e-10
4.5203e-06
2.4398e-10
4.52017e-06
-6.74371e-10
4.52043e-06
2.50239e-10
4.52027e-06
-6.23046e-10
4.5205e-06
3.06327e-10
4.52031e-06
-5.24324e-10
4.5205e-06
3.98742e-10
4.52027e-06
-3.98348e-10
4.52041e-06
5.04301e-10
4.52015e-06
-2.8246e-10
4.52026e-06
5.88113e-10
4.51999e-06
-2.05075e-10
4.52009e-06
6.18786e-10
4.51982e-06
-1.86862e-10
4.51994e-06
5.8757e-10
4.5197e-06
-2.21758e-10
4.51985e-06
5.08695e-10
4.51965e-06
-2.92658e-10
4.51984e-06
4.11469e-10
4.51967e-06
-3.68384e-10
4.51987e-06
3.32553e-10
4.51972e-06
-4.10583e-10
4.51992e-06
3.01592e-10
4.51976e-06
-3.9662e-10
4.51994e-06
3.2784e-10
4.51975e-06
-3.30445e-10
4.51989e-06
3.95861e-10
4.51967e-06
-2.34297e-10
4.51978e-06
4.78889e-10
4.51954e-06
-1.48175e-10
4.51963e-06
5.34666e-10
4.51939e-06
-1.04789e-10
4.51949e-06
5.32744e-10
4.51926e-06
-1.17636e-10
4.51938e-06
4.82127e-10
4.51918e-06
-1.63888e-10
4.51932e-06
4.1118e-10
4.51914e-06
-2.19609e-10
4.5193e-06
3.5487e-10
4.51913e-06
-2.45974e-10
4.51929e-06
3.42092e-10
4.51911e-06
-2.26352e-10
4.51923e-06
3.7477e-10
4.51903e-06
-1.67687e-10
4.51914e-06
4.36331e-10
4.51891e-06
-9.46379e-11
4.519e-06
4.92598e-10
4.51877e-06
-4.69011e-11
4.51885e-06
5.07122e-10
4.51863e-06
-4.13076e-11
4.51872e-06
4.76278e-10
4.51852e-06
-6.94418e-11
4.51863e-06
4.27485e-10
4.51844e-06
-1.07009e-10
4.51857e-06
3.86539e-10
4.51839e-06
-1.25745e-10
4.5185e-06
3.78762e-10
4.51831e-06
-1.10009e-10
4.51841e-06
4.05767e-10
4.51821e-06
-6.33223e-11
4.51829e-06
4.52247e-10
4.51807e-06
-1.2251e-11
4.51814e-06
4.89232e-10
4.51792e-06
2.0949e-11
4.51798e-06
4.89395e-10
4.51777e-06
2.10459e-11
4.51785e-06
4.61707e-10
4.51765e-06
2.16391e-12
4.51774e-06
4.28221e-10
4.51755e-06
-1.90257e-11
4.51764e-06
4.11467e-10
4.51744e-06
-1.88848e-11
4.51752e-06
4.22656e-10
4.51732e-06
6.32143e-12
4.51739e-06
4.53228e-10
4.51717e-06
4.71674e-11
4.51723e-06
4.8623e-10
4.51701e-06
8.11156e-11
4.51706e-06
4.98774e-10
4.51684e-06
9.13222e-11
4.51689e-06
4.88001e-10
4.51668e-06
8.38249e-11
4.51674e-06
4.68177e-10
4.51654e-06
7.20009e-11
4.5166e-06
4.56247e-10
4.5164e-06
7.1178e-11
4.51645e-06
4.63099e-10
4.51625e-06
8.98077e-11
4.51629e-06
4.84765e-10
4.51607e-06
1.21112e-10
4.51611e-06
5.10728e-10
4.51588e-06
1.49192e-10
4.51592e-06
5.25373e-10
4.51569e-06
1.62337e-10
4.51572e-06
5.24533e-10
4.5155e-06
1.6293e-10
4.51554e-06
5.1638e-10
4.51532e-06
1.59411e-10
4.51535e-06
5.1281e-10
4.51514e-06
1.6343e-10
4.51517e-06
5.20858e-10
4.51494e-06
1.81065e-10
4.51497e-06
5.39353e-10
4.51474e-06
2.06927e-10
4.51475e-06
5.61205e-10
4.51451e-06
2.30433e-10
4.51452e-06
5.76322e-10
4.51429e-06
2.45306e-10
4.51429e-06
5.81779e-10
4.51406e-06
2.52043e-10
4.51407e-06
5.82856e-10
4.51383e-06
2.56679e-10
4.51384e-06
5.87218e-10
4.5136e-06
2.66973e-10
4.5136e-06
5.99354e-10
4.51336e-06
2.86243e-10
4.51335e-06
6.18834e-10
4.5131e-06
3.10899e-10
4.51309e-06
6.40455e-10
4.51284e-06
3.34277e-10
4.51282e-06
6.57997e-10
4.51256e-06
3.52337e-10
4.51254e-06
6.701e-10
4.51228e-06
3.65835e-10
4.51225e-06
6.80471e-10
4.51199e-06
3.79285e-10
4.51196e-06
6.93868e-10
4.5117e-06
3.97506e-10
4.51166e-06
7.13049e-10
4.51139e-06
4.21876e-10
4.51135e-06
7.37234e-10
4.51107e-06
4.4974e-10
4.51102e-06
7.62886e-10
4.51074e-06
4.77273e-10
4.51068e-06
7.87075e-10
4.51039e-06
5.02426e-10
4.51033e-06
8.096e-10
4.51003e-06
5.26258e-10
4.50997e-06
8.32642e-10
4.50966e-06
5.52195e-10
4.50959e-06
8.59012e-10
4.50928e-06
5.82756e-10
4.5092e-06
8.90268e-10
4.50888e-06
6.17895e-10
4.50879e-06
9.25816e-10
4.50846e-06
6.55955e-10
4.50836e-06
9.63588e-10
4.50802e-06
6.95274e-10
4.50791e-06
1.00217e-09
4.50756e-06
7.35587e-10
4.50744e-06
1.04206e-09
4.50708e-06
7.77999e-10
4.50695e-06
1.08524e-09
4.50658e-06
8.24596e-10
4.50643e-06
1.13397e-09
4.50604e-06
8.77336e-10
4.50588e-06
1.18971e-09
4.50547e-06
9.37141e-10
4.5053e-06
1.25284e-09
4.50487e-06
1.00412e-09
4.50468e-06
1.32341e-09
4.50423e-06
1.07866e-09
4.50401e-06
1.40245e-09
4.50353e-06
1.16269e-09
4.50329e-06
1.49301e-09
4.50278e-06
1.26058e-09
4.50251e-06
1.60123e-09
4.50196e-06
1.38021e-09
4.50165e-06
1.73699e-09
4.50104e-06
1.53226e-09
4.50067e-06
1.91108e-09
4.50001e-06
1.72646e-09
4.49959e-06
2.13188e-09
4.49887e-06
1.97098e-09
4.49841e-06
2.4068e-09
4.49765e-06
2.27393e-09
4.49717e-06
2.74276e-09
4.4964e-06
2.6407e-09
4.49594e-06
3.13885e-09
4.49523e-06
3.0553e-09
4.49492e-06
3.47986e-09
3.53489e-09
4.49421e-06
4.8811e-06
4.35135e-10
4.88079e-06
-2.3845e-10
4.88094e-06
4.58702e-10
4.88068e-06
-2.1809e-10
4.88087e-06
4.5028e-10
4.88064e-06
-2.09294e-10
4.88083e-06
4.41168e-10
4.88059e-06
-2.15303e-10
4.88078e-06
3.93978e-10
4.88057e-06
-2.56925e-10
4.88077e-06
3.17881e-10
4.88059e-06
-3.27033e-10
4.88082e-06
2.19452e-10
4.88066e-06
-4.19473e-10
4.88091e-06
1.12841e-10
4.88079e-06
-5.09648e-10
4.88105e-06
2.46058e-11
4.88093e-06
-5.62203e-10
4.8812e-06
-1.73071e-11
4.88107e-06
-5.5251e-10
4.88132e-06
6.69218e-12
4.88117e-06
-4.79036e-10
4.88138e-06
9.98018e-11
4.8812e-06
-3.48549e-10
4.88136e-06
2.39919e-10
4.88115e-06
-1.89906e-10
4.88127e-06
3.89985e-10
4.88103e-06
-4.68829e-11
4.88112e-06
5.00086e-10
4.88087e-06
4.43182e-11
4.88096e-06
5.31847e-10
4.88072e-06
5.45022e-11
4.88082e-06
4.851e-10
4.8806e-06
-6.75229e-12
4.88073e-06
3.80995e-10
4.88056e-06
-1.17453e-10
4.88071e-06
2.58049e-10
4.88057e-06
-2.25293e-10
4.88074e-06
1.62702e-10
4.8806e-06
-2.78325e-10
4.88077e-06
1.34969e-10
4.88063e-06
-2.52942e-10
4.88077e-06
1.8273e-10
4.88061e-06
-1.64241e-10
4.88072e-06
2.86894e-10
4.88053e-06
-4.43502e-11
4.8806e-06
4.01229e-10
4.88039e-06
6.46371e-11
4.88046e-06
4.66914e-10
4.88024e-06
1.09617e-10
4.88032e-06
4.59119e-10
4.88012e-06
8.26648e-11
4.88021e-06
3.92064e-10
4.88003e-06
1.10647e-11
4.88014e-06
3.02186e-10
4.87999e-06
-7.12774e-11
4.88011e-06
2.37037e-10
4.87997e-06
-1.05244e-10
4.88008e-06
2.32702e-10
4.87993e-06
-7.56264e-11
4.88002e-06
2.87917e-10
4.87985e-06
-7.09379e-13
4.87991e-06
3.74953e-10
4.87972e-06
9.44265e-11
4.87977e-06
4.43108e-10
4.87957e-06
1.4888e-10
4.87962e-06
4.58643e-10
4.87944e-06
1.45863e-10
4.87949e-06
4.22286e-10
4.87932e-06
9.97244e-11
4.87939e-06
3.59273e-10
4.87924e-06
4.54336e-11
4.87931e-06
3.11374e-10
4.87917e-06
1.9912e-11
4.87923e-06
3.11318e-10
4.87908e-06
4.36867e-11
4.87913e-06
3.52866e-10
4.87896e-06
1.05517e-10
4.879e-06
4.1525e-10
4.87882e-06
1.71596e-10
4.87885e-06
4.59941e-10
4.87866e-06
2.04824e-10
4.87869e-06
4.63368e-10
4.87851e-06
1.96603e-10
4.87854e-06
4.32062e-10
4.87838e-06
1.63307e-10
4.87842e-06
3.91254e-10
4.87827e-06
1.34141e-10
4.8783e-06
3.74089e-10
4.87815e-06
1.3743e-10
4.87818e-06
3.9131e-10
4.87801e-06
1.73025e-10
4.87803e-06
4.33907e-10
4.87785e-06
2.24838e-10
4.87786e-06
4.76943e-10
4.87768e-06
2.63604e-10
4.87768e-06
4.94107e-10
4.8775e-06
2.71191e-10
4.87751e-06
4.83468e-10
4.87734e-06
2.55939e-10
4.87735e-06
4.59612e-10
4.87718e-06
2.37465e-10
4.87719e-06
4.46481e-10
4.87702e-06
2.38061e-10
4.87703e-06
4.57328e-10
4.87686e-06
2.62716e-10
4.87685e-06
4.88394e-10
4.87667e-06
3.02089e-10
4.87666e-06
5.23535e-10
4.87647e-06
3.35527e-10
4.87645e-06
5.43418e-10
4.87627e-06
3.48811e-10
4.87625e-06
5.44407e-10
4.87606e-06
3.45811e-10
4.87605e-06
5.35048e-10
4.87587e-06
3.39295e-10
4.87585e-06
5.31478e-10
4.87567e-06
3.44781e-10
4.87564e-06
5.43494e-10
4.87546e-06
3.66895e-10
4.87543e-06
5.69731e-10
4.87523e-06
3.99249e-10
4.8752e-06
5.99251e-10
4.875e-06
4.28008e-10
4.87496e-06
6.19628e-10
4.87476e-06
4.44425e-10
4.87471e-06
6.28032e-10
4.87451e-06
4.50587e-10
4.87446e-06
6.30197e-10
4.87427e-06
4.55249e-10
4.87422e-06
6.36437e-10
4.87402e-06
4.68092e-10
4.87396e-06
6.53252e-10
4.87376e-06
4.92257e-10
4.87369e-06
6.79873e-10
4.87348e-06
5.23148e-10
4.87341e-06
7.08737e-10
4.8732e-06
5.51832e-10
4.87312e-06
7.32062e-10
4.8729e-06
5.73081e-10
4.87282e-06
7.48294e-10
4.8726e-06
5.88716e-10
4.87252e-06
7.61879e-10
4.87229e-06
6.04874e-10
4.87221e-06
7.7937e-10
4.87198e-06
6.27429e-10
4.87189e-06
8.04725e-10
4.87165e-06
6.5796e-10
4.87155e-06
8.36729e-10
4.87131e-06
6.9289e-10
4.8712e-06
8.70445e-10
4.87095e-06
7.26978e-10
4.87084e-06
9.01718e-10
4.87058e-06
7.57717e-10
4.87046e-06
9.30214e-10
4.8702e-06
7.86823e-10
4.87007e-06
9.59219e-10
4.86981e-06
8.1853e-10
4.86967e-06
9.92866e-10
4.8694e-06
8.56233e-10
4.86926e-06
1.03311e-09
4.86897e-06
9.00258e-10
4.86882e-06
1.07876e-09
4.86853e-06
9.48297e-10
4.86837e-06
1.12709e-09
4.86806e-06
9.97799e-10
4.86789e-06
1.17642e-09
4.86758e-06
1.04822e-09
4.86739e-06
1.22747e-09
4.86707e-06
1.1014e-09
4.86687e-06
1.28286e-09
4.86653e-06
1.16035e-09
4.86632e-06
1.34553e-09
4.86597e-06
1.22756e-09
4.86574e-06
1.41723e-09
4.86538e-06
1.30405e-09
4.86513e-06
1.49832e-09
4.86475e-06
1.38984e-09
4.86448e-06
1.58897e-09
4.86407e-06
1.48565e-09
4.86379e-06
1.69094e-09
4.86335e-06
1.5945e-09
4.86304e-06
1.80873e-09
4.86258e-06
1.72217e-09
4.86223e-06
1.94906e-09
4.86173e-06
1.87564e-09
4.86135e-06
2.11858e-09
4.86082e-06
2.06091e-09
4.86041e-06
2.3223e-09
4.85986e-06
2.28238e-09
4.85942e-06
2.56392e-09
4.85885e-06
2.5435e-09
4.85841e-06
2.84624e-09
4.85784e-06
2.84629e-09
4.85741e-06
3.16951e-09
4.85687e-06
3.1877e-09
4.85648e-06
3.52167e-09
4.85603e-06
3.51282e-09
4.85564e-06
3.86133e-09
4.02927e-09
4.85515e-06
5.27078e-06
3.00453e-10
5.27057e-06
-2.21517e-11
5.27065e-06
3.71572e-10
5.27043e-06
4.9482e-12
5.27054e-06
3.41568e-10
5.27035e-06
-2.54661e-11
5.27049e-06
3.09258e-10
5.27032e-06
-5.28355e-11
5.27045e-06
2.66881e-10
5.2703e-06
-1.08492e-10
5.27044e-06
1.75246e-10
5.27032e-06
-2.06654e-10
5.27049e-06
5.44521e-11
5.2704e-06
-3.28317e-10
5.27059e-06
-7.55639e-11
5.27052e-06
-4.41329e-10
5.27072e-06
-1.76339e-10
5.27066e-06
-5.02288e-10
5.27085e-06
-2.12017e-10
5.27079e-06
-4.90716e-10
5.27096e-06
-1.65511e-10
5.27088e-06
-3.95139e-10
5.27102e-06
-4.03993e-11
5.2709e-06
-2.30839e-10
5.271e-06
1.45739e-10
5.27085e-06
-3.91345e-11
5.2709e-06
3.32838e-10
5.27072e-06
1.35148e-10
5.27076e-06
4.61772e-10
5.27057e-06
2.31963e-10
5.2706e-06
5.02114e-10
5.27043e-06
2.30728e-10
5.27047e-06
4.44213e-10
5.27032e-06
1.41426e-10
5.27039e-06
3.12859e-10
5.27026e-06
4.26935e-12
5.27036e-06
1.62488e-10
5.27027e-06
-1.32172e-10
5.27038e-06
5.40242e-11
5.27029e-06
-1.9174e-10
5.27039e-06
2.96629e-11
5.2703e-06
-1.59482e-10
5.27038e-06
1.00307e-10
5.27027e-06
-4.96807e-11
5.27032e-06
2.3514e-10
5.27017e-06
1.02453e-10
5.2702e-06
3.72105e-10
5.27004e-06
2.23675e-10
5.27006e-06
4.49987e-10
5.2699e-06
2.67269e-10
5.26992e-06
4.42584e-10
5.26978e-06
2.24821e-10
5.26981e-06
3.62364e-10
5.26969e-06
1.28039e-10
5.26974e-06
2.53743e-10
5.26964e-06
3.16391e-11
5.26969e-06
1.7922e-10
5.2696e-06
-9.37649e-12
5.26965e-06
1.80718e-10
5.26954e-06
2.98329e-11
5.26958e-06
2.53139e-10
5.26945e-06
1.29852e-10
5.26946e-06
3.59897e-10
5.26932e-06
2.37042e-10
5.26932e-06
4.42175e-10
5.26918e-06
2.94672e-10
5.26917e-06
4.62909e-10
5.26903e-06
2.85102e-10
5.26904e-06
4.20077e-10
5.26891e-06
2.23605e-10
5.26892e-06
3.45443e-10
5.26882e-06
1.54802e-10
5.26884e-06
2.91805e-10
5.26873e-06
1.28114e-10
5.26875e-06
2.93066e-10
5.26863e-06
1.60167e-10
5.26863e-06
3.48321e-10
5.2685e-06
2.36287e-10
5.26849e-06
4.26075e-10
5.26835e-06
3.12046e-10
5.26833e-06
4.78716e-10
5.26819e-06
3.46861e-10
5.26817e-06
4.84963e-10
5.26803e-06
3.33231e-10
5.26802e-06
4.48528e-10
5.26789e-06
2.89495e-10
5.26788e-06
4.01608e-10
5.26776e-06
2.55503e-10
5.26775e-06
3.8375e-10
5.26763e-06
2.6052e-10
5.26761e-06
4.07035e-10
5.26748e-06
3.05264e-10
5.26745e-06
4.61057e-10
5.26731e-06
3.66483e-10
5.26727e-06
5.12643e-10
5.26713e-06
4.08891e-10
5.26709e-06
5.34967e-10
5.26694e-06
4.16328e-10
5.2669e-06
5.23679e-10
5.26676e-06
3.95696e-10
5.26672e-06
4.96332e-10
5.26659e-06
3.73196e-10
5.26655e-06
4.82593e-10
5.26642e-06
3.74513e-10
5.26638e-06
4.97123e-10
5.26623e-06
4.04927e-10
5.26619e-06
5.36662e-10
5.26604e-06
4.51724e-10
5.26598e-06
5.79766e-10
5.26583e-06
4.89752e-10
5.26576e-06
6.05269e-10
5.26561e-06
5.04931e-10
5.26554e-06
6.07832e-10
5.26539e-06
5.00074e-10
5.26533e-06
5.97777e-10
5.26517e-06
4.92168e-10
5.26511e-06
5.94768e-10
5.26496e-06
4.98814e-10
5.26489e-06
6.10427e-10
5.26473e-06
5.25466e-10
5.26466e-06
6.43589e-10
5.26449e-06
5.63903e-10
5.26441e-06
6.8017e-10
5.26424e-06
5.97583e-10
5.26416e-06
7.06041e-10
5.26398e-06
6.16921e-10
5.26389e-06
7.17347e-10
5.26372e-06
6.23852e-10
5.26363e-06
7.21043e-10
5.26346e-06
6.29379e-10
5.26336e-06
7.29574e-10
5.26319e-06
6.44746e-10
5.26309e-06
7.51086e-10
5.26291e-06
6.7396e-10
5.2628e-06
7.84448e-10
5.26261e-06
7.10974e-10
5.2625e-06
8.20199e-10
5.26231e-06
7.45118e-10
5.26219e-06
8.49264e-10
5.262e-06
7.7044e-10
5.26187e-06
8.69779e-10
5.26167e-06
7.89049e-10
5.26155e-06
8.86964e-10
5.26135e-06
8.08347e-10
5.26122e-06
9.08869e-10
5.26101e-06
8.35566e-10
5.26087e-06
9.40441e-10
5.26066e-06
8.7249e-10
5.26051e-06
9.80048e-10
5.26029e-06
9.14613e-10
5.26014e-06
1.02155e-09
5.25991e-06
9.55545e-10
5.25975e-06
1.05985e-09
5.25952e-06
9.92346e-10
5.25936e-06
1.09463e-09
5.25911e-06
1.0272e-09
5.25894e-06
1.12994e-09
5.2587e-06
1.06522e-09
5.25852e-06
1.17088e-09
5.25827e-06
1.11057e-09
5.25808e-06
1.21991e-09
5.25781e-06
1.1637e-09
5.25762e-06
1.27557e-09
5.25734e-06
1.22174e-09
5.25714e-06
1.33443e-09
5.25685e-06
1.28152e-09
5.25664e-06
1.39435e-09
5.25634e-06
1.34235e-09
5.25611e-06
1.45624e-09
5.25581e-06
1.40655e-09
5.25557e-06
1.52339e-09
5.25525e-06
1.47784e-09
5.255e-06
1.59938e-09
5.25466e-06
1.55922e-09
5.2544e-06
1.68628e-09
5.25405e-06
1.6518e-09
5.25376e-06
1.78448e-09
5.2534e-06
1.75561e-09
5.25309e-06
1.89414e-09
5.2527e-06
1.87139e-09
5.25238e-06
2.01695e-09
5.25197e-06
2.00187e-09
5.25162e-06
2.1566e-09
5.25119e-06
2.15143e-09
5.25083e-06
2.31773e-09
5.25038e-06
2.3246e-09
5.24999e-06
2.50439e-09
5.24953e-06
2.52485e-09
5.24913e-06
2.71932e-09
5.24866e-06
2.75421e-09
5.24826e-06
2.96371e-09
5.24779e-06
3.01307e-09
5.2474e-06
3.23699e-09
5.24694e-06
3.29953e-09
5.24658e-06
3.53465e-09
5.24617e-06
3.60189e-09
5.24586e-06
3.82243e-09
5.24547e-06
3.9058e-09
5.24516e-06
4.17296e-09
4.37287e-09
5.24482e-06
5.69156e-06
2.01651e-10
5.69144e-06
9.1294e-11
5.69148e-06
3.4112e-10
5.69134e-06
1.38859e-10
5.69137e-06
3.16765e-10
5.69123e-06
1.08534e-10
5.69128e-06
2.64333e-10
5.69117e-06
5.74113e-11
5.69124e-06
1.97666e-10
5.69115e-06
-2.11065e-11
5.69123e-06
9.27244e-11
5.69117e-06
-1.42459e-10
5.69127e-06
-5.14456e-11
5.69124e-06
-2.90693e-10
5.69136e-06
-2.01985e-10
5.69135e-06
-4.24791e-10
5.69148e-06
-3.13385e-10
5.69147e-06
-4.93606e-10
5.69161e-06
-3.44382e-10
5.69159e-06
-4.77412e-10
5.69171e-06
-2.79638e-10
5.69167e-06
-3.61406e-10
5.69175e-06
-1.20668e-10
5.69169e-06
-1.64791e-10
5.69173e-06
1.00737e-10
5.69163e-06
6.56343e-11
5.69164e-06
3.22431e-10
5.69151e-06
2.6225e-10
5.6915e-06
4.71441e-10
5.69137e-06
3.67237e-10
5.69135e-06
5.16161e-10
5.69122e-06
3.57946e-10
5.69122e-06
4.457e-10
5.69112e-06
2.44825e-10
5.69114e-06
2.92397e-10
5.69107e-06
7.91815e-11
5.69111e-06
1.18459e-10
5.69105e-06
-7.54181e-11
5.69111e-06
-3.73538e-12
5.69106e-06
-1.42657e-10
5.69112e-06
-2.52004e-11
5.69106e-06
-1.02423e-10
5.69109e-06
6.47908e-11
5.69101e-06
3.17062e-11
5.69102e-06
2.27293e-10
5.69092e-06
2.08052e-10
5.6909e-06
3.84526e-10
5.69079e-06
3.40183e-10
5.69076e-06
4.73033e-10
5.69065e-06
3.84395e-10
5.69062e-06
4.6398e-10
5.69052e-06
3.30082e-10
5.69051e-06
3.7005e-10
5.69043e-06
2.13805e-10
5.69043e-06
2.46892e-10
5.69036e-06
1.03656e-10
5.69037e-06
1.65207e-10
5.69031e-06
6.02013e-11
5.69032e-06
1.68066e-10
5.69024e-06
1.09367e-10
5.69023e-06
2.57322e-10
5.69014e-06
2.27179e-10
5.69011e-06
3.83518e-10
5.69e-06
3.45971e-10
5.68997e-06
4.77189e-10
5.68985e-06
4.09115e-10
5.68982e-06
5.01396e-10
5.68971e-06
3.94813e-10
5.68968e-06
4.51275e-10
5.68958e-06
3.21351e-10
5.68956e-06
3.66413e-10
5.68947e-06
2.43206e-10
5.68945e-06
3.07863e-10
5.68937e-06
2.14074e-10
5.68935e-06
3.11205e-10
5.68925e-06
2.53786e-10
5.68922e-06
3.78725e-10
5.68912e-06
3.42597e-10
5.68908e-06
4.68981e-10
5.68896e-06
4.26005e-10
5.68891e-06
5.30222e-10
5.68879e-06
4.64656e-10
5.68874e-06
5.37654e-10
5.68863e-06
4.46901e-10
5.68858e-06
4.96259e-10
5.68847e-06
3.96392e-10
5.68843e-06
4.45139e-10
5.68832e-06
3.59218e-10
5.68828e-06
4.25749e-10
5.68818e-06
3.65637e-10
5.68813e-06
4.55348e-10
5.68801e-06
4.1865e-10
5.68796e-06
5.19166e-10
5.68784e-06
4.87373e-10
5.68777e-06
5.78412e-10
5.68764e-06
5.34745e-10
5.68757e-06
6.05491e-10
5.68745e-06
5.42693e-10
5.68738e-06
5.93356e-10
5.68725e-06
5.18904e-10
5.68719e-06
5.63949e-10
5.68707e-06
4.94432e-10
5.687e-06
5.49322e-10
5.68688e-06
4.96064e-10
5.68681e-06
5.6771e-10
5.68668e-06
5.32082e-10
5.6866e-06
6.14631e-10
5.68647e-06
5.85236e-10
5.68638e-06
6.64692e-10
5.68624e-06
6.28598e-10
5.68615e-06
6.95758e-10
5.68601e-06
6.46463e-10
5.68592e-06
6.9992e-10
5.68578e-06
6.414e-10
5.68569e-06
6.90055e-10
5.68555e-06
6.33193e-10
5.68545e-06
6.87539e-10
5.68531e-06
6.41e-10
5.68521e-06
7.06821e-10
5.68507e-06
6.72284e-10
5.68496e-06
7.46118e-10
5.68481e-06
7.16375e-10
5.6847e-06
7.89127e-10
5.68455e-06
7.5544e-10
5.68443e-06
8.20518e-10
5.68427e-06
7.78504e-10
5.68415e-06
8.34939e-10
5.68399e-06
7.8727e-10
5.68387e-06
8.40611e-10
5.6837e-06
7.94211e-10
5.68358e-06
8.51523e-10
5.68341e-06
8.12578e-10
5.68329e-06
8.77727e-10
5.68311e-06
8.47014e-10
5.68298e-06
9.17425e-10
5.6828e-06
8.90059e-10
5.68266e-06
9.59711e-10
5.68248e-06
9.29919e-10
5.68233e-06
9.94548e-10
5.68214e-06
9.5993e-10
5.68199e-06
1.0195e-09
5.6818e-06
9.8212e-10
5.68165e-06
1.04048e-09
5.68145e-06
1.00511e-09
5.68129e-06
1.06699e-09
5.68109e-06
1.03739e-09
5.68093e-06
1.10476e-09
5.68072e-06
1.08084e-09
5.68055e-06
1.15171e-09
5.68033e-06
1.13015e-09
5.68015e-06
1.20073e-09
5.67993e-06
1.17806e-09
5.67974e-06
1.24602e-09
5.67951e-06
1.22125e-09
5.67932e-06
1.2872e-09
5.67909e-06
1.26222e-09
5.67889e-06
1.32899e-09
5.67865e-06
1.30688e-09
5.67844e-06
1.37731e-09
5.67819e-06
1.36004e-09
5.67797e-06
1.43498e-09
5.67772e-06
1.42218e-09
5.67749e-06
1.50029e-09
5.67722e-06
1.48998e-09
5.67699e-06
1.56924e-09
5.67671e-06
1.55976e-09
5.67646e-06
1.63936e-09
5.67618e-06
1.63072e-09
5.67592e-06
1.71165e-09
5.67562e-06
1.70552e-09
5.67536e-06
1.78994e-09
5.67505e-06
1.78847e-09
5.67477e-06
1.87832e-09
5.67444e-06
1.88292e-09
5.67415e-06
1.97906e-09
5.67381e-06
1.98997e-09
5.6735e-06
2.09231e-09
5.67315e-06
2.10919e-09
5.67283e-06
2.21755e-09
5.67246e-06
2.24047e-09
5.67212e-06
2.35538e-09
5.67174e-06
2.38528e-09
5.67138e-06
2.50814e-09
5.67099e-06
2.54662e-09
5.67063e-06
2.67916e-09
5.67022e-06
2.72781e-09
5.66986e-06
2.87135e-09
5.66945e-06
2.93106e-09
5.66908e-06
3.08598e-09
5.66868e-06
3.15662e-09
5.66832e-06
3.32223e-09
5.66793e-06
3.40257e-09
5.66759e-06
3.57679e-09
5.66723e-06
3.66324e-09
5.66693e-06
3.83581e-09
5.66661e-06
3.91664e-09
5.66633e-06
4.10509e-09
5.66603e-06
4.21245e-09
5.66578e-06
4.41722e-09
4.62025e-09
5.66553e-06
6.14593e-06
1.37724e-10
6.14589e-06
1.35002e-10
6.14592e-06
3.12128e-10
6.14583e-06
2.28954e-10
6.14582e-06
3.25562e-10
6.14572e-06
2.07568e-10
6.14571e-06
2.71514e-10
6.14563e-06
1.41156e-10
6.14565e-06
1.79337e-10
6.14559e-06
3.62622e-11
6.14563e-06
5.01989e-11
6.1456e-06
-1.12037e-10