/*--------------------------------*- C++ -*----------------------------------*\
| =========                 |                                                 |
| \\      /  F ield         | OpenFOAM: The Open Source CFD Toolbox           |
|  \\    /   O peration     | Version:  v1912                                 |
|   \\  /    A nd           | Website:  www.openfoam.com                      |
|    \\/     M anipulation  |                                                 |
\*---------------------------------------------------------------------------*/
FoamFile
{
    version     2.0;
    format      ascii;
    class       volVectorField;
    location    "0.4";
    object      U;
}
// * * * * * * * * * * * * * * * * * * * * * * * * * * * * * * * * * * * * * //

dimensions      [0 1 -1 0 0 0 0];


internalField   nonuniform List<vector> 
12000
(
(0.999435 8.6916e-05 0)
(1.00058 -9.35607e-05 0)
(0.999451 8.56312e-05 0)
(1.00058 -9.11105e-05 0)
(0.999447 8.7045e-05 0)
(1.00057 -8.90314e-05 0)
(0.999428 8.72724e-05 0)
(1.00054 -8.82281e-05 0)
(0.999402 8.67267e-05 0)
(1.00052 -8.79862e-05 0)
(0.999378 8.59253e-05 0)
(1.0005 -8.80469e-05 0)
(0.999363 8.48712e-05 0)
(1.00049 -8.84163e-05 0)
(0.999361 8.35492e-05 0)
(1.00049 -8.89759e-05 0)
(0.999375 8.21374e-05 0)
(1.00051 -8.94033e-05 0)
(0.999403 8.09981e-05 0)
(1.00055 -8.93016e-05 0)
(0.999443 8.03412e-05 0)
(1.00059 -8.86323e-05 0)
(0.999486 8.02045e-05 0)
(1.00063 -8.73388e-05 0)
(0.999521 8.06729e-05 0)
(1.00066 -8.54289e-05 0)
(0.999538 8.1644e-05 0)
(1.00066 -8.32229e-05 0)
(0.999528 8.26582e-05 0)
(1.00064 -8.13214e-05 0)
(0.99949 8.31334e-05 0)
(1.00059 -8.01963e-05 0)
(0.999431 8.28179e-05 0)
(1.00053 -7.9692e-05 0)
(0.999366 8.21489e-05 0)
(1.00047 -7.96051e-05 0)
(0.999316 8.1171e-05 0)
(1.00043 -7.98588e-05 0)
(0.999296 8.01051e-05 0)
(1.00043 -8.00432e-05 0)
(0.99931 7.94031e-05 0)
(1.00046 -7.97408e-05 0)
(0.99935 7.93295e-05 0)
(1.00051 -7.875e-05 0)
(0.999393 7.99805e-05 0)
(1.00054 -7.71573e-05 0)
(0.999415 8.10935e-05 0)
(1.00055 -7.54106e-05 0)
(0.999397 8.20753e-05 0)
(1.00051 -7.4122e-05 0)
(0.999341 8.23125e-05 0)
(1.00044 -7.35863e-05 0)
(0.999264 8.20298e-05 0)
(1.00037 -7.33972e-05 0)
(0.999196 8.15149e-05 0)
(1.00032 -7.33589e-05 0)
(0.999163 8.0974e-05 0)
(1.00031 -7.328e-05 0)
(0.999173 8.05991e-05 0)
(1.00034 -7.27796e-05 0)
(0.999211 8.08975e-05 0)
(1.00038 -7.1574e-05 0)
(0.999244 8.18071e-05 0)
(1.00041 -6.99675e-05 0)
(0.999243 8.28873e-05 0)
(1.00039 -6.85624e-05 0)
(0.999196 8.34168e-05 0)
(1.00032 -6.79113e-05 0)
(0.999116 8.33448e-05 0)
(1.00024 -6.75917e-05 0)
(0.999039 8.31279e-05 0)
(1.00018 -6.74071e-05 0)
(0.998995 8.28695e-05 0)
(1.00017 -6.72328e-05 0)
(0.998996 8.27667e-05 0)
(1.00019 -6.66768e-05 0)
(0.999025 8.33033e-05 0)
(1.00023 -6.54645e-05 0)
(0.999047 8.43861e-05 0)
(1.00024 -6.39959e-05 0)
(0.99903 8.54655e-05 0)
(1.0002 -6.28881e-05 0)
(0.99897 8.59798e-05 0)
(1.00013 -6.23922e-05 0)
(0.998886 8.60834e-05 0)
(1.00005 -6.21594e-05 0)
(0.998816 8.60978e-05 0)
(1.00001 -6.19815e-05 0)
(0.998784 8.61998e-05 0)
(1 -6.16128e-05 0)
(0.99879 8.67273e-05 0)
(1.00002 -6.07046e-05 0)
(0.998806 8.78257e-05 0)
(1.00004 -5.93995e-05 0)
(0.998798 8.91221e-05 0)
(1.00002 -5.8212e-05 0)
(0.998748 9.01249e-05 0)
(0.999956 -5.74693e-05 0)
(0.998668 9.07314e-05 0)
(0.99988 -5.70748e-05 0)
(0.998589 9.11743e-05 0)
(0.999821 -5.67564e-05 0)
(0.99854 9.17112e-05 0)
(0.999799 -5.62776e-05 0)
(0.998526 9.25679e-05 0)
(0.999805 -5.54373e-05 0)
(0.998526 9.38471e-05 0)
(0.999811 -5.42655e-05 0)
(0.998511 9.53652e-05 0)
(0.999788 -5.30734e-05 0)
(0.99846 9.6782e-05 0)
(0.999731 -5.21388e-05 0)
(0.998381 9.79458e-05 0)
(0.999658 -5.14724e-05 0)
(0.998299 9.8977e-05 0)
(0.999596 -5.088e-05 0)
(0.99824 0.000100098 0)
(0.999564 -5.01499e-05 0)
(0.99821 0.000101492 0)
(0.999555 -4.91432e-05 0)
(0.998194 0.000103221 0)
(0.999547 -4.78842e-05 0)
(0.998163 0.000105168 0)
(0.999516 -4.65684e-05 0)
(0.998104 0.000107114 0)
(0.999456 -4.5385e-05 0)
(0.99802 0.000108949 0)
(0.999383 -4.43517e-05 0)
(0.997935 0.00011075 0)
(0.99932 -4.33343e-05 0)
(0.997869 0.000112685 0)
(0.99928 -4.2169e-05 0)
(0.997824 0.000114893 0)
(0.999258 -4.07603e-05 0)
(0.997787 0.000117409 0)
(0.999233 -3.91324e-05 0)
(0.997736 0.000120153 0)
(0.999188 -3.74108e-05 0)
(0.997662 0.000122991 0)
(0.999121 -3.57107e-05 0)
(0.997571 0.000125864 0)
(0.999046 -3.40295e-05 0)
(0.997479 0.000128842 0)
(0.99898 -3.22585e-05 0)
(0.997402 0.000132058 0)
(0.998931 -3.0271e-05 0)
(0.997338 0.000135617 0)
(0.998891 -2.80003e-05 0)
(0.997276 0.000139543 0)
(0.998846 -2.54629e-05 0)
(0.997201 0.000143789 0)
(0.998784 -2.27304e-05 0)
(0.997107 0.000148285 0)
(0.998707 -1.98716e-05 0)
(0.997001 0.000152985 0)
(0.998625 -1.69092e-05 0)
(0.996896 0.000157903 0)
(0.998549 -1.37918e-05 0)
(0.9968 0.00016313 0)
(0.998484 -1.04206e-05 0)
(0.996709 0.000168762 0)
(0.998422 -6.72247e-06 0)
(0.996616 0.000174847 0)
(0.998352 -2.68612e-06 0)
(0.996508 0.000181372 0)
(0.998267 1.65161e-06 0)
(0.996386 0.000188301 0)
(0.998171 6.22341e-06 0)
(0.996254 0.000195615 0)
(0.998071 1.11377e-05 0)
(0.99612 0.000203401 0)
(0.997973 1.6381e-05 0)
(0.995987 0.00021174 0)
(0.997877 2.21127e-05 0)
(0.995852 0.000220781 0)
(0.997776 2.84592e-05 0)
(0.995707 0.000230651 0)
(0.997663 3.55334e-05 0)
(0.995546 0.000241474 0)
(0.997535 4.34641e-05 0)
(0.995367 0.000253413 0)
(0.997392 5.24357e-05 0)
(0.995172 0.0002667 0)
(0.997237 6.27162e-05 0)
(0.994965 0.000281665 0)
(0.997071 7.46822e-05 0)
(0.994743 0.000298774 0)
(0.99689 8.8904e-05 0)
(0.994498 0.000318783 0)
(0.996684 0.000106385 0)
(0.99422 0.000343116 0)
(0.996439 0.000129185 0)
(0.993895 0.000374902 0)
(0.996142 0.000162094 0)
(0.993505 0.000421556 0)
(0.995776 0.000216297 0)
(0.993033 0.000499537 0)
(0.995318 0.000314901 0)
(0.992456 0.000639883 0)
(0.994752 0.000497154 0)
(0.999749 8.37961e-05 0)
(1.00026 -9.7159e-05 0)
(0.999771 8.35355e-05 0)
(1.00026 -9.13991e-05 0)
(0.999771 8.89396e-05 0)
(1.00024 -8.6976e-05 0)
(0.999755 9.07245e-05 0)
(1.00022 -8.62166e-05 0)
(0.999732 9.00597e-05 0)
(1.00019 -8.71156e-05 0)
(0.999711 8.83577e-05 0)
(1.00016 -8.90594e-05 0)
(0.999699 8.56997e-05 0)
(1.00015 -9.19981e-05 0)
(0.9997 8.22703e-05 0)
(1.00015 -9.53781e-05 0)
(0.999716 7.8902e-05 0)
(1.00017 -9.81091e-05 0)
(0.999748 7.67161e-05 0)
(1.0002 -9.91136e-05 0)
(0.99979 7.64301e-05 0)
(1.00024 -9.79775e-05 0)
(0.999837 7.83179e-05 0)
(1.00028 -9.45333e-05 0)
(0.999875 8.23853e-05 0)
(1.00031 -8.91587e-05 0)
(0.999895 8.77483e-05 0)
(1.00031 -8.32499e-05 0)
(0.999889 9.27812e-05 0)
(1.00028 -7.86462e-05 0)
(0.999854 9.57088e-05 0)
(1.00023 -7.67509e-05 0)
(0.999798 9.5777e-05 0)
(1.00016 -7.74504e-05 0)
(0.999738 9.37207e-05 0)
(1.00009 -8.00898e-05 0)
(0.999691 9.02512e-05 0)
(1.00005 -8.36019e-05 0)
(0.999675 8.6822e-05 0)
(1.00005 -8.62407e-05 0)
(0.999694 8.51344e-05 0)
(1.00008 -8.66539e-05 0)
(0.999738 8.60237e-05 0)
(1.00012 -8.43307e-05 0)
(0.999785 8.96164e-05 0)
(1.00015 -7.97847e-05 0)
(0.999811 9.46491e-05 0)
(1.00015 -7.49277e-05 0)
(0.999797 9.88582e-05 0)
(1.00011 -7.19609e-05 0)
(0.999744 0.000100421 0)
(1.00004 -7.1881e-05 0)
(0.99967 9.94507e-05 0)
(0.999961 -7.38242e-05 0)
(0.999606 9.70752e-05 0)
(0.999908 -7.63907e-05 0)
(0.999576 9.49022e-05 0)
(0.999896 -7.81448e-05 0)
(0.999591 9.41449e-05 0)
(0.999923 -7.7867e-05 0)
(0.999632 9.59366e-05 0)
(0.999962 -7.49806e-05 0)
(0.99967 9.9951e-05 0)
(0.999981 -7.06547e-05 0)
(0.999673 0.000104343 0)
(0.999956 -6.72167e-05 0)
(0.999629 0.000106773 0)
(0.999888 -6.63756e-05 0)
(0.999554 0.000106701 0)
(0.999805 -6.7497e-05 0)
(0.999481 0.000105312 0)
(0.99974 -6.93482e-05 0)
(0.999441 0.00010388 0)
(0.999719 -7.06283e-05 0)
(0.999448 0.000103681 0)
(0.999738 -7.008e-05 0)
(0.999482 0.000105791 0)
(0.999767 -6.72167e-05 0)
(0.999509 0.000109753 0)
(0.999772 -6.342e-05 0)
(0.999497 0.00011361 0)
(0.999732 -6.0821e-05 0)
(0.999441 0.000115532 0)
(0.999656 -6.04482e-05 0)
(0.999363 0.000115517 0)
(0.999574 -6.15517e-05 0)
(0.999298 0.000114714 0)
(0.999522 -6.28119e-05 0)
(0.999272 0.000114478 0)
(0.999512 -6.29378e-05 0)
(0.999284 0.000115987 0)
(0.999528 -6.10685e-05 0)
(0.999306 0.000119431 0)
(0.999537 -5.78146e-05 0)
(0.999304 0.000123519 0)
(0.999509 -5.48748e-05 0)
(0.99926 0.000126579 0)
(0.999443 -5.35186e-05 0)
(0.999186 0.000127985 0)
(0.99936 -5.36761e-05 0)
(0.999113 0.000128397 0)
(0.999295 -5.42993e-05 0)
(0.99907 0.000129029 0)
(0.999267 -5.42008e-05 0)
(0.999062 0.00013093 0)
(0.999267 -5.26009e-05 0)
(0.99907 0.000134402 0)
(0.999266 -4.97539e-05 0)
(0.999061 0.000138665 0)
(0.999236 -4.68154e-05 0)
(0.999018 0.000142471 0)
(0.999172 -4.48613e-05 0)
(0.998945 0.000145126 0)
(0.999091 -4.40774e-05 0)
(0.99887 0.000146952 0)
(0.999022 -4.37508e-05 0)
(0.998819 0.000148888 0)
(0.998982 -4.2905e-05 0)
(0.998798 0.000151797 0)
(0.998967 -4.09098e-05 0)
(0.998789 0.000155948 0)
(0.998951 -3.79117e-05 0)
(0.998767 0.000160818 0)
(0.998911 -3.47147e-05 0)
(0.998716 0.000165512 0)
(0.998842 -3.21115e-05 0)
(0.998641 0.000169502 0)
(0.99876 -3.02766e-05 0)
(0.998565 0.000172989 0)
(0.998688 -2.87075e-05 0)
(0.998508 0.000176671 0)
(0.998639 -2.66578e-05 0)
(0.998473 0.000181212 0)
(0.998607 -2.36592e-05 0)
(0.998446 0.000186805 0)
(0.998572 -1.98273e-05 0)
(0.998406 0.000193072 0)
(0.998517 -1.57363e-05 0)
(0.998343 0.000199384 0)
(0.99844 -1.19335e-05 0)
(0.998262 0.000205401 0)
(0.998354 -8.49687e-06 0)
(0.998183 0.000211324 0)
(0.998276 -5.0091e-06 0)
(0.998117 0.000217707 0)
(0.998215 -9.06136e-07 0)
(0.998066 0.000225028 0)
(0.998163 4.11966e-06 0)
(0.998018 0.000233389 0)
(0.998106 9.95133e-06 0)
(0.997956 0.000242507 0)
(0.998031 1.61961e-05 0)
(0.997876 0.000251983 0)
(0.997939 2.25172e-05 0)
(0.997785 0.000261623 0)
(0.997843 2.88933e-05 0)
(0.997695 0.000271595 0)
(0.997753 3.56352e-05 0)
(0.997614 0.000282307 0)
(0.997673 4.31557e-05 0)
(0.99754 0.000294116 0)
(0.997595 5.16855e-05 0)
(0.997464 0.000307115 0)
(0.997508 6.11667e-05 0)
(0.997375 0.000321145 0)
(0.997407 7.13743e-05 0)
(0.997271 0.000335997 0)
(0.997293 8.21246e-05 0)
(0.997158 0.000351633 0)
(0.997174 9.36122e-05 0)
(0.997044 0.00036832 0)
(0.997057 0.000106065 0)
(0.996933 0.000386432 0)
(0.996941 0.000119944 0)
(0.99682 0.000406397 0)
(0.99682 0.0001356 0)
(0.996699 0.000428518 0)
(0.996686 0.000153275 0)
(0.996562 0.000453042 0)
(0.996536 0.000173238 0)
(0.99641 0.000480329 0)
(0.996371 0.000195953 0)
(0.996243 0.000511012 0)
(0.996193 0.000222207 0)
(0.996065 0.000546081 0)
(0.996004 0.000253186 0)
(0.995875 0.000586995 0)
(0.9958 0.000290663 0)
(0.995666 0.000636036 0)
(0.995572 0.000337646 0)
(0.995429 0.000697368 0)
(0.995311 0.000399945 0)
(0.995155 0.000779218 0)
(0.99501 0.000489026 0)
(0.994841 0.000897383 0)
(0.99467 0.00062608 0)
(0.994492 0.00107964 0)
(0.9943 0.000846338 0)
(0.994121 0.00136918 0)
(0.993917 0.00120057 0)
(0.999939 6.64475e-05 0)
(1.00007 -7.08664e-05 0)
(0.999964 6.8429e-05 0)
(1.00008 -6.46176e-05 0)
(0.999962 7.32257e-05 0)
(1.00006 -6.01437e-05 0)
(0.999943 7.43652e-05 0)
(1.00003 -5.96062e-05 0)
(0.999918 7.24643e-05 0)
(1.00001 -6.15727e-05 0)
(0.999895 6.85531e-05 0)
(0.999983 -6.56041e-05 0)
(0.999881 6.27356e-05 0)
(0.999972 -7.1459e-05 0)
(0.99988 5.56806e-05 0)
(0.999977 -7.78319e-05 0)
(0.999894 4.91436e-05 0)
(0.999998 -8.26539e-05 0)
(0.999924 4.51811e-05 0)
(1.00003 -8.40407e-05 0)
(0.999966 4.52777e-05 0)
(1.00008 -8.09742e-05 0)
(1.00001 4.99141e-05 0)
(1.00012 -7.34793e-05 0)
(1.00005 5.85153e-05 0)
(1.00014 -6.28382e-05 0)
(1.00007 6.89356e-05 0)
(1.00015 -5.18205e-05 0)
(1.00006 7.80923e-05 0)
(1.00012 -4.37175e-05 0)
(1.00002 8.28482e-05 0)
(1.00007 -4.09873e-05 0)
(0.999962 8.18701e-05 0)
(0.999999 -4.37772e-05 0)
(0.999899 7.6083e-05 0)
(0.999937 -5.05157e-05 0)
(0.99985 6.76063e-05 0)
(0.999899 -5.84068e-05 0)
(0.999833 5.97843e-05 0)
(0.999896 -6.37494e-05 0)
(0.999851 5.61367e-05 0)
(0.999925 -6.38774e-05 0)
(0.999894 5.81912e-05 0)
(0.999971 -5.83639e-05 0)
(0.99994 6.54084e-05 0)
(1.00001 -4.88731e-05 0)
(0.999964 7.49214e-05 0)
(1.00001 -3.92177e-05 0)
(0.999948 8.23862e-05 0)
(0.99997 -3.3642e-05 0)
(0.999891 8.44513e-05 0)
(0.999898 -3.4098e-05 0)
(0.999814 8.08815e-05 0)
(0.999821 -3.91672e-05 0)
(0.999747 7.42267e-05 0)
(0.99977 -4.5482e-05 0)
(0.999717 6.8371e-05 0)
(0.999761 -4.92311e-05 0)
(0.99973 6.65781e-05 0)
(0.999791 -4.80029e-05 0)
(0.999771 7.01703e-05 0)
(0.999834 -4.17335e-05 0)
(0.999808 7.7807e-05 0)
(0.999855 -3.30573e-05 0)
(0.999808 8.57288e-05 0)
(0.99983 -2.63984e-05 0)
(0.999762 8.97381e-05 0)
(0.999763 -2.48982e-05 0)
(0.999683 8.8397e-05 0)
(0.99968 -2.80286e-05 0)
(0.999607 8.37396e-05 0)
(0.999618 -3.28113e-05 0)
(0.999567 7.92362e-05 0)
(0.999599 -3.56657e-05 0)
(0.999572 7.81361e-05 0)
(0.999621 -3.41309e-05 0)
(0.999606 8.17616e-05 0)
(0.999654 -2.8225e-05 0)
(0.999632 8.86911e-05 0)
(0.999661 -2.06945e-05 0)
(0.999618 9.52512e-05 0)
(0.999621 -1.54602e-05 0)
(0.999559 9.8076e-05 0)
(0.999545 -1.47155e-05 0)
(0.999478 9.66044e-05 0)
(0.999464 -1.73498e-05 0)
(0.999411 9.31311e-05 0)
(0.999414 -2.03134e-05 0)
(0.999384 9.11042e-05 0)
(0.999407 -2.04173e-05 0)
(0.999396 9.28619e-05 0)
(0.999426 -1.65046e-05 0)
(0.999417 9.8282e-05 0)
(0.999437 -9.98555e-06 0)
(0.999413 0.000104867 0)
(0.999411 -4.01661e-06 0)
(0.999366 0.000109424 0)
(0.999344 -1.19947e-06 0)
(0.99929 0.000110481 0)
(0.999263 -1.60472e-06 0)
(0.999215 0.000109237 0)
(0.9992 -3.10718e-06 0)
(0.999171 0.000108333 0)
(0.999174 -2.99178e-06 0)
(0.999163 0.000110104 0)
(0.999177 2.84519e-07 0)
(0.99917 0.000115024 0)
(0.999178 6.02748e-06 0)
(0.99916 0.000121403 0)
(0.99915 1.19242e-05 0)
(0.999114 0.000126751 0)
(0.999086 1.57838e-05 0)
(0.999039 0.000129608 0)
(0.999006 1.71523e-05 0)
(0.998962 0.000130538 0)
(0.998939 1.74544e-05 0)
(0.998909 0.000131516 0)
(0.998902 1.88354e-05 0)
(0.998887 0.000134459 0)
(0.998889 2.26252e-05 0)
(0.998878 0.000139877 0)
(0.998875 2.84388e-05 0)
(0.998854 0.000146602 0)
(0.998837 3.45907e-05 0)
(0.998801 0.000152782 0)
(0.998769 3.94275e-05 0)
(0.998724 0.000157286 0)
(0.998689 4.25497e-05 0)
(0.998646 0.000160484 0)
(0.998618 4.49938e-05 0)
(0.998587 0.00016385 0)
(0.998572 4.83749e-05 0)
(0.998552 0.000168829 0)
(0.998543 5.36883e-05 0)
(0.998524 0.0001758 0)
(0.99851 6.06409e-05 0)
(0.998483 0.000183894 0)
(0.998457 6.79833e-05 0)
(0.998418 0.000191758 0)
(0.998381 7.4539e-05 0)
(0.998335 0.000198633 0)
(0.998296 8.01104e-05 0)
(0.998254 0.000204901 0)
(0.99822 8.55584e-05 0)
(0.998187 0.000211714 0)
(0.998162 9.20807e-05 0)
(0.998136 0.000220089 0)
(0.998113 0.000100319 0)
(0.998086 0.000230201 0)
(0.998058 0.000109973 0)
(0.998023 0.000241372 0)
(0.997985 0.000120147 0)
(0.997942 0.0002527 0)
(0.997895 0.000130121 0)
(0.997849 0.000263802 0)
(0.997801 0.000139922 0)
(0.997758 0.000275105 0)
(0.997714 0.000150273 0)
(0.997676 0.000287483 0)
(0.997636 0.000162025 0)
(0.997602 0.000301622 0)
(0.997561 0.000175579 0)
(0.997525 0.000317602 0)
(0.997478 0.000190713 0)
(0.997435 0.000334991 0)
(0.997379 0.000206904 0)
(0.99733 0.000353319 0)
(0.997268 0.000223847 0)
(0.997217 0.000372547 0)
(0.997153 0.000241794 0)
(0.997103 0.000393179 0)
(0.997039 0.000261422 0)
(0.996991 0.000415999 0)
(0.996927 0.000283512 0)
(0.996879 0.000441701 0)
(0.996811 0.000308607 0)
(0.996758 0.000470682 0)
(0.996683 0.000336984 0)
(0.996623 0.000503185 0)
(0.996538 0.00036894 0)
(0.996472 0.000539665 0)
(0.996379 0.00040516 0)
(0.996308 0.000581119 0)
(0.996209 0.000446982 0)
(0.996135 0.000629265 0)
(0.996031 0.000496524 0)
(0.995952 0.000686688 0)
(0.99584 0.00055692 0)
(0.995754 0.000757249 0)
(0.995631 0.000632974 0)
(0.995535 0.000847006 0)
(0.9954 0.000732294 0)
(0.995295 0.000965404 0)
(0.995149 0.000866308 0)
(0.995036 0.00112583 0)
(0.994883 0.00105007 0)
(0.99477 0.00134445 0)
(0.994617 0.00130003 0)
(0.99451 0.00163696 0)
(0.994364 0.00163012 0)
(0.999991 4.88237e-05 0)
(1.00002 -3.65808e-05 0)
(1.00001 5.39435e-05 0)
(1.00003 -3.31218e-05 0)
(1.00001 5.44782e-05 0)
(1.00001 -3.19199e-05 0)
(0.999988 5.34485e-05 0)
(0.999988 -3.2602e-05 0)
(0.999961 5.0292e-05 0)
(0.99996 -3.5975e-05 0)
(0.999936 4.43656e-05 0)
(0.999938 -4.24277e-05 0)
(0.99992 3.55739e-05 0)
(0.999928 -5.1492e-05 0)
(0.999918 2.51983e-05 0)
(0.999934 -6.09563e-05 0)
(0.999932 1.60105e-05 0)
(0.999957 -6.76831e-05 0)
(0.999963 1.11528e-05 0)
(0.999994 -6.88524e-05 0)
(1 1.27675e-05 0)
(1.00004 -6.3098e-05 0)
(1.00005 2.12939e-05 0)
(1.00008 -5.08951e-05 0)
(1.00009 3.52505e-05 0)
(1.00011 -3.47756e-05 0)
(1.00011 5.11461e-05 0)
(1.00012 -1.89383e-05 0)
(1.00009 6.42897e-05 0)
(1.00009 -8.22395e-06 0)
(1.00005 7.02987e-05 0)
(1.00003 -5.8813e-06 0)
(0.999991 6.74746e-05 0)
(0.999966 -1.19541e-05 0)
(0.999925 5.72766e-05 0)
(0.999904 -2.36545e-05 0)
(0.999875 4.37391e-05 0)
(0.999868 -3.61201e-05 0)
(0.999857 3.21903e-05 0)
(0.999867 -4.37412e-05 0)
(0.999876 2.7828e-05 0)
(0.9999 -4.27692e-05 0)
(0.999921 3.24842e-05 0)
(0.999949 -3.32939e-05 0)
(0.999968 4.44573e-05 0)
(0.999986 -1.85645e-05 0)
(0.999991 5.90018e-05 0)
(0.999989 -4.51042e-06 0)
(0.999972 6.96239e-05 0)
(0.999948 2.6579e-06 0)
(0.999912 7.15695e-05 0)
(0.999874 5.68998e-07 0)
(0.999832 6.49688e-05 0)
(0.999797 -8.51499e-06 0)
(0.999765 5.39615e-05 0)
(0.999746 -1.90604e-05 0)
(0.999735 4.48275e-05 0)
(0.99974 -2.46444e-05 0)
(0.99975 4.30231e-05 0)
(0.999774 -2.18034e-05 0)
(0.999793 4.96982e-05 0)
(0.999819 -1.14324e-05 0)
(0.99983 6.20147e-05 0)
(0.99984 1.60636e-06 0)
(0.999829 7.36726e-05 0)
(0.999815 1.07929e-05 0)
(0.999779 7.88921e-05 0)
(0.999745 1.20314e-05 0)
(0.999698 7.59606e-05 0)
(0.999661 6.16844e-06 0)
(0.999621 6.79544e-05 0)
(0.999599 -1.99874e-06 0)
(0.99958 6.07133e-05 0)
(0.999584 -6.41978e-06 0)
(0.999588 5.94924e-05 0)
(0.999609 -3.50511e-06 0)
(0.999623 6.56894e-05 0)
(0.999644 5.83071e-06 0)
(0.999649 7.635e-05 0)
(0.999651 1.69616e-05 0)
(0.999634 8.5825e-05 0)
(0.99961 2.41607e-05 0)
(0.999571 8.93741e-05 0)
(0.999532 2.4535e-05 0)
(0.999487 8.64256e-05 0)
(0.999451 1.98224e-05 0)
(0.99942 8.05978e-05 0)
(0.999402 1.49297e-05 0)
(0.999394 7.73577e-05 0)
(0.999397 1.48054e-05 0)
(0.999408 8.0127e-05 0)
(0.999419 2.08326e-05 0)
(0.99943 8.82727e-05 0)
(0.999431 3.05173e-05 0)
(0.999426 9.78148e-05 0)
(0.999404 3.90518e-05 0)
(0.999377 0.000104013 0)
(0.999336 4.26925e-05 0)
(0.999297 0.000104843 0)
(0.999253 4.14444e-05 0)
(0.999221 0.000102195 0)
(0.999191 3.86515e-05 0)
(0.999178 0.000100257 0)
(0.999167 3.86016e-05 0)
(0.999172 0.000102589 0)
(0.999172 4.34552e-05 0)
(0.99918 0.000109645 0)
(0.999175 5.19413e-05 0)
(0.99917 0.000118701 0)
(0.999147 6.04371e-05 0)
(0.999122 0.000125929 0)
(0.999082 6.56686e-05 0)
(0.999045 0.000129238 0)
(0.999 6.70765e-05 0)
(0.998968 0.000129609 0)
(0.998933 6.69422e-05 0)
(0.998916 0.000130163 0)
(0.998898 6.86237e-05 0)
(0.998895 0.000133826 0)
(0.998887 7.40473e-05 0)
(0.998887 0.000141216 0)
(0.998875 8.24714e-05 0)
(0.998864 0.000150415 0)
(0.998837 9.12211e-05 0)
(0.998809 0.000158541 0)
(0.998768 9.77923e-05 0)
(0.998731 0.000163957 0)
(0.998686 0.000101695 0)
(0.998652 0.000167355 0)
(0.998616 0.000104627 0)
(0.998594 0.000171077 0)
(0.998571 0.000109093 0)
(0.99856 0.000177301 0)
(0.998544 0.000116525 0)
(0.998533 0.000186473 0)
(0.998513 0.000126343 0)
(0.998493 0.000197142 0)
(0.998459 0.000136555 0)
(0.998426 0.000207209 0)
(0.998382 0.000145388 0)
(0.998343 0.000215587 0)
(0.998297 0.000152634 0)
(0.998261 0.000222951 0)
(0.998222 0.000159678 0)
(0.998196 0.000231096 0)
(0.998166 0.000168351 0)
(0.998146 0.000241537 0)
(0.998118 0.000179568 0)
(0.998098 0.000254449 0)
(0.998064 0.000192774 0)
(0.998036 0.00026871 0)
(0.997992 0.00020655 0)
(0.997954 0.000282927 0)
(0.997902 0.000219823 0)
(0.997861 0.000296572 0)
(0.997808 0.000232703 0)
(0.99777 0.000310354 0)
(0.997722 0.000246338 0)
(0.997691 0.000325627 0)
(0.997646 0.000262015 0)
(0.997619 0.000343382 0)
(0.997574 0.000280272 0)
(0.997543 0.000363652 0)
(0.997492 0.000300683 0)
(0.997455 0.000385705 0)
(0.997394 0.000322414 0)
(0.997351 0.00040882 0)
(0.997284 0.000345033 0)
(0.997239 0.00043298 0)
(0.997171 0.000368966 0)
(0.997127 0.000458994 0)
(0.99706 0.000395274 0)
(0.997019 0.000488034 0)
(0.996952 0.000425078 0)
(0.99691 0.000521041 0)
(0.996839 0.000459068 0)
(0.996794 0.000558462 0)
(0.996715 0.000497509 0)
(0.996663 0.000600509 0)
(0.996576 0.000540704 0)
(0.996518 0.000647728 0)
(0.996423 0.000589565 0)
(0.996362 0.000701495 0)
(0.996262 0.00064597 0)
(0.996199 0.000764213 0)
(0.996096 0.000712842 0)
(0.996031 0.000839326 0)
(0.995923 0.000794143 0)
(0.995854 0.000931343 0)
(0.99574 0.000894946 0)
(0.995666 0.00104591 0)
(0.995544 0.00102144 0)
(0.995467 0.00118969 0)
(0.99534 0.00118058 0)
(0.995263 0.00136973 0)
(0.995135 0.00137927 0)
(0.995062 0.00159241 0)
(0.994939 0.00162294 0)
(0.994875 0.00186183 0)
(0.994758 0.00191392 0)
(0.999998 3.37727e-05 0)
(1.00001 -9.66972e-06 0)
(1.00002 4.28084e-05 0)
(1.00002 -7.46626e-06 0)
(1.00001 4.02064e-05 0)
(1 -9.91225e-06 0)
(0.999989 3.6594e-05 0)
(0.999976 -1.25744e-05 0)
(0.999961 3.20967e-05 0)
(0.999947 -1.75935e-05 0)
(0.999935 2.43961e-05 0)
(0.999924 -2.65084e-05 0)
(0.999918 1.30804e-05 0)
(0.999914 -3.85636e-05 0)
(0.999915 1.22746e-08 0)
(0.99992 -5.07726e-05 0)
(0.999931 -1.10372e-05 0)
(0.999944 -5.89327e-05 0)
(0.999963 -1.6015e-05 0)
(0.999984 -5.95092e-05 0)
(1.00001 -1.22504e-05 0)
(1.00003 -5.08101e-05 0)
(1.00006 6.48436e-07 0)
(1.00008 -3.38312e-05 0)
(1.00009 2.01818e-05 0)
(1.00011 -1.24719e-05 0)
(1.00011 4.12528e-05 0)
(1.00011 7.39219e-06 0)
(1.0001 5.76525e-05 0)
(1.00008 1.97806e-05 0)
(1.00005 6.43085e-05 0)
(1.00002 2.11031e-05 0)
(0.999987 5.93917e-05 0)
(0.999954 1.15258e-05 0)
(0.999918 4.5001e-05 0)
(0.999892 -4.98244e-06 0)
(0.999868 2.6844e-05 0)
(0.999856 -2.1373e-05 0)
(0.999852 1.27413e-05 0)
(0.999859 -3.03011e-05 0)
(0.999874 8.72108e-06 0)
(0.999896 -2.76398e-05 0)
(0.999922 1.66168e-05 0)
(0.999948 -1.40131e-05 0)
(0.999971 3.34783e-05 0)
(0.999986 5.53127e-06 0)
(0.999994 5.24967e-05 0)
(0.999987 2.2838e-05 0)
(0.999971 6.52815e-05 0)
(0.999942 3.05699e-05 0)
(0.999908 6.66304e-05 0)
(0.999865 2.63455e-05 0)
(0.999825 5.70414e-05 0)
(0.999785 1.33686e-05 0)
(0.999757 4.22813e-05 0)
(0.999735 -6.77888e-07 0)
(0.999729 3.09408e-05 0)
(0.999733 -7.30845e-06 0)
(0.999749 2.98885e-05 0)
(0.99977 -2.46061e-06 0)
(0.999796 4.00874e-05 0)
(0.999818 1.19261e-05 0)
(0.999834 5.68073e-05 0)
(0.999839 2.87029e-05 0)
(0.999831 7.15237e-05 0)
(0.99981 3.95379e-05 0)
(0.999777 7.73249e-05 0)
(0.999737 3.99442e-05 0)
(0.999692 7.2606e-05 0)
(0.999651 3.12917e-05 0)
(0.999613 6.16221e-05 0)
(0.999589 2.02561e-05 0)
(0.999575 5.24484e-05 0)
(0.999577 1.49475e-05 0)
(0.999586 5.17858e-05 0)
(0.999606 1.95772e-05 0)
(0.999625 6.08872e-05 0)
(0.999644 3.23571e-05 0)
(0.999652 7.51857e-05 0)
(0.99965 4.66276e-05 0)
(0.999634 8.70425e-05 0)
(0.999606 5.51072e-05 0)
(0.999567 9.08273e-05 0)
(0.999525 5.47068e-05 0)
(0.999481 8.63299e-05 0)
(0.999442 4.79842e-05 0)
(0.999413 7.86139e-05 0)
(0.999395 4.1688e-05 0)
(0.99939 7.48081e-05 0)
(0.999394 4.19709e-05 0)
(0.999407 7.9059e-05 0)
(0.99942 5.03448e-05 0)
(0.999432 9.01211e-05 0)
(0.999432 6.30598e-05 0)
(0.999426 0.000102402 0)
(0.999403 7.37006e-05 0)
(0.999374 0.000109893 0)
(0.999332 7.77769e-05 0)
(0.999292 0.000110343 0)
(0.999247 7.55458e-05 0)
(0.999215 0.000106449 0)
(0.999185 7.16648e-05 0)
(0.999173 0.000103934 0)
(0.999164 7.17846e-05 0)
(0.999171 0.000107291 0)
(0.999172 7.84666e-05 0)
(0.999182 0.000116779 0)
(0.999177 8.97163e-05 0)
(0.999171 0.000128546 0)
(0.999147 0.000100577 0)
(0.999121 0.000137531 0)
(0.999079 0.000106896 0)
(0.999042 0.000141215 0)
(0.998996 0.000108172 0)
(0.998963 0.000141145 0)
(0.998929 0.00010767 0)
(0.998912 0.000141631 0)
(0.998896 0.000109872 0)
(0.998895 0.000146435 0)
(0.998888 0.000117146 0)
(0.998889 0.000156144 0)
(0.998877 0.000128254 0)
(0.998866 0.000167987 0)
(0.998838 0.000139486 0)
(0.99881 0.00017809 0)
(0.998767 0.000147598 0)
(0.998729 0.000184444 0)
(0.998684 0.000152147 0)
(0.99865 0.000188199 0)
(0.998614 0.000155597 0)
(0.998593 0.000192604 0)
(0.998571 0.000161312 0)
(0.998562 0.00020048 0)
(0.998547 0.000171051 0)
(0.998538 0.000212222 0)
(0.998517 0.000183821 0)
(0.998497 0.000225709 0)
(0.998463 0.000196848 0)
(0.99843 0.000238116 0)
(0.998384 0.000207843 0)
(0.998345 0.000248136 0)
(0.998298 0.000216701 0)
(0.998264 0.000256839 0)
(0.998224 0.0002254 0)
(0.9982 0.000266688 0)
(0.99817 0.000236384 0)
(0.998153 0.000279632 0)
(0.998125 0.000250748 0)
(0.998107 0.000295746 0)
(0.998072 0.000267594 0)
(0.998045 0.000313411 0)
(0.998 0.000284965 0)
(0.997963 0.000330771 0)
(0.99791 0.000301497 0)
(0.99787 0.00034723 0)
(0.997816 0.000317461 0)
(0.99778 0.000363849 0)
(0.997731 0.000334467 0)
(0.997703 0.000382453 0)
(0.997659 0.0003542 0)
(0.997634 0.000404288 0)
(0.997589 0.000377267 0)
(0.997561 0.000429272 0)
(0.997509 0.000402991 0)
(0.997475 0.000456355 0)
(0.997413 0.000430232 0)
(0.997372 0.000484593 0)
(0.997305 0.000458475 0)
(0.997262 0.000514044 0)
(0.997193 0.000488363 0)
(0.997153 0.000545839 0)
(0.997086 0.000521335 0)
(0.99705 0.00058151 0)
(0.996983 0.0005588 0)
(0.996947 0.000622184 0)
(0.996876 0.000601526 0)
(0.996837 0.000668294 0)
(0.996759 0.000649713 0)
(0.996713 0.000719978 0)
(0.996626 0.000703632 0)
(0.996575 0.000777835 0)
(0.996482 0.000764356 0)
(0.996429 0.000843497 0)
(0.996333 0.000834091 0)
(0.996281 0.0009197 0)
(0.996184 0.000916 0)
(0.996132 0.00100992 0)
(0.996033 0.00101373 0)
(0.995981 0.00111786 0)
(0.995878 0.00113097 0)
(0.995825 0.0012471 0)
(0.995717 0.00127113 0)
(0.995664 0.00140091 0)
(0.995554 0.0014373 0)
(0.995503 0.00158211 0)
(0.995395 0.00163196 0)
(0.995351 0.00179277 0)
(0.995248 0.00185663 0)
(0.995214 0.00203365 0)
(0.995118 0.00211121 0)
(0.999999 2.29597e-05 0)
(1.00001 5.35171e-06 0)
(1.00001 3.59932e-05 0)
(1.00001 9.67627e-06 0)
(1 3.41039e-05 0)
(0.999994 6.12665e-06 0)
(0.99998 2.89033e-05 0)
(0.999967 1.22202e-06 0)
(0.999952 2.24133e-05 0)
(0.999937 -6.13629e-06 0)
(0.999924 1.251e-05 0)
(0.999913 -1.7675e-05 0)
(0.999907 -1.31302e-06 0)
(0.999901 -3.24983e-05 0)
(0.999905 -1.67878e-05 0)
(0.999908 -4.70495e-05 0)
(0.999921 -2.93857e-05 0)
(0.999934 -5.63337e-05 0)
(0.999956 -3.43673e-05 0)
(0.999977 -5.62124e-05 0)
(1 -2.85248e-05 0)
(1.00003 -4.46645e-05 0)
(1.00005 -1.15541e-05 0)
(1.00008 -2.32612e-05 0)
(1.0001 1.30189e-05 0)
(1.00011 2.78066e-06 0)
(1.00011 3.85796e-05 0)
(1.00011 2.60947e-05 0)
(1.00009 5.76478e-05 0)
(1.00008 3.98449e-05 0)
(1.00005 6.46137e-05 0)
(1.00001 4.0089e-05 0)
(0.999976 5.76026e-05 0)
(0.999941 2.73312e-05 0)
(0.999904 3.96312e-05 0)
(0.999877 6.86149e-06 0)
(0.999853 1.79396e-05 0)
(0.999843 -1.25552e-05 0)
(0.99984 1.97009e-06 0)
(0.999851 -2.23409e-05 0)
(0.999867 -1.46969e-06 0)
(0.999893 -1.79599e-05 0)
(0.99992 9.50165e-06 0)
(0.999948 -5.81201e-07 0)
(0.999972 3.06712e-05 0)
(0.999987 2.28785e-05 0)
(0.999993 5.31799e-05 0)
(0.999985 4.25405e-05 0)
(0.999967 6.74426e-05 0)
(0.999935 5.04764e-05 0)
(0.999898 6.80595e-05 0)
(0.999852 4.42148e-05 0)
(0.999811 5.58895e-05 0)
(0.99977 2.81426e-05 0)
(0.999743 3.83164e-05 0)
(0.999722 1.17453e-05 0)
(0.999719 2.56817e-05 0)
(0.999724 4.68777e-06 0)
(0.999744 2.55394e-05 0)
(0.999767 1.15184e-05 0)
(0.999796 3.88228e-05 0)
(0.999818 2.92826e-05 0)
(0.999835 5.90077e-05 0)
(0.999838 4.90636e-05 0)
(0.999829 7.60824e-05 0)
(0.999805 6.12044e-05 0)
(0.99977 8.221e-05 0)
(0.999727 6.07323e-05 0)
(0.99968 7.58127e-05 0)
(0.999637 4.97763e-05 0)
(0.9996 6.25471e-05 0)
(0.999577 3.67518e-05 0)
(0.999565 5.22128e-05 0)
(0.999569 3.11563e-05 0)
(0.999582 5.24307e-05 0)
(0.999604 3.76191e-05 0)
(0.999625 6.4252e-05 0)
(0.999644 5.3462e-05 0)
(0.999652 8.16593e-05 0)
(0.999649 7.03327e-05 0)
(0.999631 9.5446e-05 0)
(0.999601 7.97832e-05 0)
(0.999559 9.93073e-05 0)
(0.999514 7.85111e-05 0)
(0.999469 9.34194e-05 0)
(0.99943 7.01524e-05 0)
(0.999401 8.43143e-05 0)
(0.999385 6.29424e-05 0)
(0.999382 8.04128e-05 0)
(0.99939 6.3984e-05 0)
(0.999405 8.63734e-05 0)
(0.999419 7.47459e-05 0)
(0.999432 0.000100241 0)
(0.999433 9.02213e-05 0)
(0.999425 0.000114949 0)
(0.9994 0.000102647 0)
(0.999369 0.00012348 0)
(0.999324 0.000106934 0)
(0.999282 0.000123472 0)
(0.999236 0.000103801 0)
(0.999204 0.000118604 0)
(0.999176 9.91962e-05 0)
(0.999166 0.000115907 0)
(0.999159 9.98495e-05 0)
(0.999168 0.000120587 0)
(0.999172 0.000108576 0)
(0.999182 0.000132604 0)
(0.999177 0.000122541 0)
(0.999172 0.000146931 0)
(0.999146 0.000135567 0)
(0.999118 0.000157471 0)
(0.999074 0.000142791 0)
(0.999035 0.000161428 0)
(0.998988 0.00014394 0)
(0.998955 0.000161052 0)
(0.998921 0.000143299 0)
(0.998907 0.000161757 0)
(0.998892 0.00014633 0)
(0.998893 0.000168011 0)
(0.998888 0.000155703 0)
(0.99889 0.000180223 0)
(0.998879 0.000169556 0)
(0.998868 0.0001947 0)
(0.998838 0.000183178 0)
(0.998809 0.000206692 0)
(0.998764 0.000192715 0)
(0.998725 0.00021395 0)
(0.998679 0.000197905 0)
(0.998645 0.000218183 0)
(0.99861 0.000202025 0)
(0.998591 0.000223533 0)
(0.99857 0.000209238 0)
(0.998563 0.000233373 0)
(0.998549 0.000221499 0)
(0.998542 0.000247907 0)
(0.998521 0.000237293 0)
(0.998502 0.000264288 0)
(0.998466 0.000253083 0)
(0.998433 0.000279045 0)
(0.998385 0.000266169 0)
(0.998346 0.000290765 0)
(0.998298 0.000276655 0)
(0.998265 0.00030099 0)
(0.998226 0.000287153 0)
(0.998203 0.000312843 0)
(0.998174 0.000300661 0)
(0.99816 0.000328612 0)
(0.998133 0.000318336 0)
(0.998116 0.000348165 0)
(0.998082 0.000338871 0)
(0.998055 0.000369367 0)
(0.998009 0.000359797 0)
(0.997973 0.000389966 0)
(0.997918 0.000379553 0)
(0.997879 0.000409392 0)
(0.997825 0.000398642 0)
(0.997791 0.000429092 0)
(0.997743 0.000419131 0)
(0.997717 0.000451327 0)
(0.997674 0.000443037 0)
(0.997652 0.000477507 0)
(0.997608 0.000470949 0)
(0.997583 0.000507378 0)
(0.997531 0.000501917 0)
(0.997498 0.00053958 0)
(0.997437 0.00053453 0)
(0.997397 0.000573004 0)
(0.99733 0.000568247 0)
(0.99729 0.000607821 0)
(0.997222 0.000603945 0)
(0.997185 0.000645472 0)
(0.99712 0.000643392 0)
(0.997088 0.000687778 0)