/*--------------------------------*- C++ -*----------------------------------*\
| =========                 |                                                 |
| \\      /  F ield         | OpenFOAM: The Open Source CFD Toolbox           |
|  \\    /   O peration     | Version:  v1912                                 |
|   \\  /    A nd           | Website:  www.openfoam.com                      |
|    \\/     M anipulation  |                                                 |
\*---------------------------------------------------------------------------*/
FoamFile
{
    version     2.0;
    format      ascii;
    class       volScalarField;
    location    "0.5";
    object      p;
}
// * * * * * * * * * * * * * * * * * * * * * * * * * * * * * * * * * * * * * //

dimensions      [0 2 -2 0 0 0 0];


internalField   nonuniform List<scalar> 
12000
(
-6.64895e-09
-1.03341e-05
-1.65491e-05
-1.8326e-05
-1.58813e-05
-9.85937e-06
-1.1928e-06
9.03563e-06
1.98577e-05
3.03527e-05
3.99277e-05
4.80211e-05
5.42951e-05
5.84244e-05
6.02613e-05
5.96711e-05
5.66545e-05
5.12074e-05
4.34489e-05
3.35486e-05
2.18361e-05
8.75575e-06
-5.04843e-06
-1.88784e-05
-3.19559e-05
-4.35054e-05
-5.27617e-05
-5.89823e-05
-6.15649e-05
-6.00161e-05
-5.41002e-05
-4.3777e-05
-2.93393e-05
-1.1295e-05
9.56615e-06
3.22539e-05
5.54875e-05
7.78873e-05
9.81055e-05
0.000114994
0.000127589
0.000135327
0.000137975
0.000135819
0.000129496
0.000120159
0.00010925
9.84143e-05
8.93225e-05
8.35624e-05
8.24047e-05
8.67582e-05
9.6961e-05
0.000112867
0.000133765
0.000158501
0.000185353
0.000212327
0.000237431
0.000258924
0.000275414
0.000286171
0.000291039
0.000290655
0.000286226
0.000279478
0.000272372
0.000267009
0.000265211
0.000268507
0.000277728
0.00029313
0.00031415
0.000339647
0.000367762
0.000396448
0.00042346
0.000446956
0.000465481
0.000478414
0.000485757
0.000488447
0.00048785
0.000485955
0.000484769
0.00048636
0.000492268
0.000503613
0.000520639
0.000542995
0.000569442
0.000598394
0.000627765
0.00065566
0.000680269
0.000700527
0.000715848
0.000726618
0.000733682
0.00073865
0.000743212
0.000749326
0.000758501
0.00077201
0.000790288
0.000813297
0.000840123
0.000869559
0.000899852
0.000929433
0.0009567
0.000980728
0.00100092
0.00101756
0.00103127
0.00104338
0.00105522
0.0010684
0.00108407
0.00110328
0.00112625
0.00115296
0.00118257
0.00121416
0.0012463
0.00127789
0.00130769
0.00133518
0.00135997
0.00138247
0.00140318
0.00142325
0.0014436
0.00146547
0.00148953
0.00151649
0.00154629
0.00157884
0.00161336
0.0016492
0.00168527
0.00172094
0.00175537
0.00178845
0.00181996
0.00185045
0.00188027
0.00191038
0.00194129
0.00197393
0.00200851
0.00204551
0.00208461
0.00212581
0.00216833
0.00221193
0.00225575
0.00229967
0.0023431
0.00238628
0.00242903
0.00247201
0.00251533
0.00255984
0.00260564
0.00265346
0.00270318
0.00275528
0.00280948
0.00286578
0.00292358
0.00298309
0.00304365
0.00310562
0.00316855
0.00323303
0.00329889
0.00336695
0.00343714
0.00351042
0.00358669
0.00366685
0.00375072
0.00383913
0.00393181
0.00402961
0.00413235
0.00424112
0.00435601
0.00447858
0.00460941
0.00475075
0.00490388
0.00507188
0.00525679
0.00546248
0.00569139
0.00594743
0.00623198
0.00654673
2.82539e-06
-1.02189e-05
-1.73161e-05
-1.93189e-05
-1.64806e-05
-1.02552e-05
-1.24543e-06
9.00157e-06
1.99736e-05
3.03967e-05
4.01045e-05
4.81265e-05
5.45497e-05
5.862e-05
6.06093e-05
5.99419e-05
5.70429e-05
5.14681e-05
4.37653e-05
3.36837e-05
2.1979e-05
8.72216e-06
-5.07931e-06
-1.91092e-05
-3.22024e-05
-4.39646e-05
-5.32361e-05
-5.9646e-05
-6.2178e-05
-6.07241e-05
-5.46538e-05
-4.4327e-05
-2.96707e-05
-1.15562e-05
9.52741e-06
3.22227e-05
5.5601e-05
7.79825e-05
9.83423e-05
0.000115187
0.000127886
0.000135512
0.000138198
0.000135865
0.000129504
0.00011995
0.000108962
9.79027e-05
8.87655e-05
8.28512e-05
8.17595e-05
8.60768e-05
9.64802e-05
0.000112488
0.000133641
0.000158419
0.000185392
0.000212336
0.000237539
0.000258971
0.000275545
0.000286197
0.000291096
0.000290538
0.000286013
0.000279019
0.000271827
0.000266285
0.000264511
0.000267755
0.000277149
0.000292651
0.000313907
0.000339464
0.000367721
0.000396382
0.000423477
0.000446912
0.000465495
0.000478314
0.000485638
0.000488107
0.000487401
0.000485284
0.000484036
0.000485512
0.000491495
0.000502867
0.000520078
0.00054251
0.000569137
0.00059812
0.000627601
0.000655444
0.000680095
0.000700236
0.000715536
0.00072612
0.000733108
0.000737869
0.000742372
0.000748346
0.000757556
0.000771029
0.000789428
0.000812463
0.000839434
0.000868883
0.000899278
0.000928804
0.000956105
0.000980006
0.00100017
0.00101663
0.00103028
0.0010422
0.00105399
0.00106703
0.00108272
0.00110184
0.0011249
0.00115157
0.00118128
0.00121283
0.00124504
0.00127653
0.00130634
0.00133368
0.00135842
0.00138072
0.00140138
0.00142124
0.00144154
0.00146323
0.00148729
0.00151411
0.00154393
0.00157637
0.00161091
0.00164662
0.00168269
0.00171817
0.00175255
0.00178538
0.00181679
0.001847
0.00187669
0.0019065
0.00193731
0.00196965
0.00200413
0.00204086
0.00207989
0.00212083
0.00216332
0.00220666
0.00225042
0.00229403
0.00233732
0.00238011
0.00242268
0.00246522
0.00250831
0.00255235
0.00259792
0.00264528
0.00269482
0.00274651
0.00280041
0.0028562
0.00291374
0.00297266
0.00303287
0.00309413
0.00315656
0.00322019
0.00328541
0.00335244
0.00342183
0.0034939
0.00356917
0.00364789
0.00373051
0.00381716
0.00390822
0.00400379
0.00410429
0.00420998
0.00432149
0.00443932
0.00456434
0.00469724
0.00483885
0.00498958
0.00514973
0.00531882
0.00549607
0.00567976
0.00586809
0.00605881
5.91745e-06
-1.03961e-05
-1.87186e-05
-2.0935e-05
-1.75675e-05
-1.08808e-05
-1.36845e-06
9.02559e-06
2.01912e-05
3.06234e-05
4.05011e-05
4.85663e-05
5.51962e-05
5.93186e-05
6.14861e-05
6.08041e-05
5.7973e-05
5.22517e-05
4.44819e-05
3.41226e-05
2.22592e-05
8.65131e-06
-5.36322e-06
-1.97805e-05
-3.31108e-05
-4.52349e-05
-5.46723e-05
-6.13173e-05
-6.38468e-05
-6.24033e-05
-5.60934e-05
-4.55735e-05
-3.05015e-05
-1.20724e-05
9.49414e-06
3.24975e-05
5.62644e-05
7.88449e-05
9.94649e-05
0.000116327
0.000129055
0.000136469
0.000138965
0.00013623
0.000129556
0.000119506
0.000108142
9.66078e-05
8.72138e-05
8.10572e-05
8.00231e-05
8.44571e-05
9.52459e-05
0.000111623
0.000133326
0.000158493
0.000185904
0.000213066
0.000238498
0.000259912
0.00027644
0.000286813
0.000291455
0.000290448
0.000285541
0.000278017
0.000270471
0.00026458
0.000262746
0.000266017
0.000275727
0.000291571
0.000313349
0.000339315
0.000368018
0.000396898
0.000424191
0.00044758
0.000466079
0.000478585
0.000485595
0.000487563
0.000486447
0.000483854
0.000482354
0.000483627
0.000489696
0.000501223
0.00051882
0.00054161
0.000568708
0.000598001
0.000627778
0.000655685
0.000680348
0.000700264
0.000715319
0.000725464
0.000732077
0.000736384
0.000740609
0.000746334
0.000755537
0.000769052
0.000787712
0.000810987
0.000838335
0.000868032
0.000898695
0.000928282
0.000955612
0.000979321
0.000999281
0.00101536
0.00102869
0.00104021
0.00105175
0.00106454
0.0010802
0.0010993
0.00112253
0.00114934
0.00117931
0.001211
0.00124338
0.00127486
0.00130466
0.00133178
0.00135633
0.00137827
0.00139862
0.00141812
0.00143818
0.00145962
0.0014836
0.00151033
0.00154022
0.00157267
0.00160733
0.00164303
0.00167913
0.00171446
0.00174871
0.00178123
0.00181236
0.00184214
0.0018715
0.00190089
0.0019314
0.00196341
0.00199771
0.0020342
0.00207313
0.00211387
0.00215625
0.00219934
0.00224289
0.00228612
0.00232905
0.00237132
0.00241339
0.0024553
0.00249786
0.00254124
0.00258628
0.00263303
0.00268208
0.00273316
0.00278653
0.00284163
0.00289854
0.00295662
0.00301599
0.00307615
0.00313749
0.00319975
0.00326357
0.00332894
0.00339664
0.00346671
0.00353992
0.00361622
0.00369626
0.00377983
0.00386749
0.00395893
0.00405467
0.00415439
0.00425863
0.00436702
0.00448003
0.00459711
0.00471847
0.00484321
0.00497113
0.00510081
0.00523158
0.00536157
0.00548985
0.00561458
5.32848e-06
-1.10169e-05
-1.94628e-05
-2.15692e-05
-1.80696e-05
-1.11148e-05
-1.44149e-06
9.17735e-06
2.0471e-05
3.11115e-05
4.11499e-05
4.94901e-05
5.6327e-05
6.0713e-05
6.30063e-05
6.24373e-05
5.95307e-05
5.3691e-05
4.55999e-05
3.48899e-05
2.25002e-05
8.3896e-06
-6.23365e-06
-2.11607e-05
-3.50571e-05
-4.75941e-05
-5.74174e-05
-6.42419e-05
-6.68483e-05
-6.52145e-05
-5.85915e-05
-4.74928e-05
-3.1793e-05
-1.25616e-05
9.73137e-06
3.34908e-05
5.78275e-05
8.08981e-05
0.000101759
0.000118732
0.000131297
0.000138392
0.000140278
0.000136851
0.00012931
0.000118465
0.000106282
9.41311e-05
8.42306e-05
7.78792e-05
7.68732e-05
8.17042e-05
9.30879e-05
0.000110344
0.00013295
0.000159048
0.00018717
0.000214898
0.000240581
0.000262047
0.000278284
0.00028817
0.00029205
0.00029021
0.000284369
0.000276069
0.000267825
0.000261536
0.000259537
0.000263034
0.000273205
0.00028983
0.000312478
0.00033937
0.000368821
0.000398278
0.00042581
0.000449212
0.00046736
0.000479321
0.000485516
0.000486654
0.000484651
0.000481381
0.000479342
0.000480423
0.000486545
0.000498494
0.000516707
0.000540315
0.000568187
0.00059818
0.000628404
0.000656553
0.000681117
0.000700711
0.000715144
0.000724583
0.000730366
0.000733977
0.000737607
0.000743024
0.00075213
0.000765875
0.000784936
0.000808822
0.000836767
0.00086705
0.000898105
0.00092793
0.000955203
0.00097867
0.00099812
0.00101362
0.00102624
0.00103716
0.00104817
0.00106067
0.00107619
0.00109542
0.00111889
0.00114612
0.00117648
0.00120857
0.00124118
0.00127277
0.00130243
0.00132929
0.00135335
0.00137476
0.00139451
0.00141347
0.00143306
0.00145421
0.001478
0.00150475
0.00153474
0.0015674
0.00160222
0.00163807
0.00167416
0.0017094
0.00174334
0.00177546
0.00180602
0.00183523
0.00186394
0.00189277
0.00192275
0.00195438
0.00198834
0.00202464
0.00206338
0.00210401
0.00214617
0.00218903
0.00223219
0.00227495
0.00231723
0.00235878
0.0024
0.00244106
0.00248268
0.0025252
0.00256934
0.00261529
0.00266349
0.00271378
0.00276626
0.00282046
0.00287629
0.0029332
0.00299116
0.00304978
0.00310928
0.00316957
0.00323112
0.00329406
0.00335903
0.00342617
0.00349607
0.00356876
0.00364465
0.00372355
0.00380568
0.00389067
0.00397859
0.00406895
0.00416177
0.00425647
0.00435301
0.00445074
0.00454952
0.00464858
0.00474762
0.00484571
0.00494243
0.00503677
0.00512841
0.00521685
7.97129e-07
-1.24427e-05
-1.93777e-05
-2.08964e-05
-1.75076e-05
-1.06892e-05
-1.21727e-06
9.45877e-06
2.08271e-05
3.17901e-05
4.21084e-05
5.08921e-05
5.80591e-05
6.28331e-05
6.52908e-05
6.48435e-05
6.17736e-05
5.5693e-05
4.7069e-05
3.57574e-05
2.25473e-05
7.63919e-06
-7.88631e-06
-2.35908e-05
-3.82832e-05
-5.13926e-05
-6.17132e-05
-6.87109e-05
-7.13141e-05
-6.92928e-05
-6.20878e-05
-5.00629e-05
-3.33118e-05
-1.28844e-05
1.05176e-05
3.53739e-05
6.05785e-05
8.43635e-05
0.000105514
0.00012249
0.000134668
0.000141094
0.000141944
0.000137348
0.000128483
0.000116418
0.000103085
9.00791e-05
7.95269e-05
7.30163e-05
7.22194e-05
7.77852e-05
9.02377e-05
0.000108849
0.000132813
0.000160244
0.000189449
0.000218004
0.000244055
0.00026547
0.000281153
0.000290124
0.000292689
0.000289466
0.000282228
0.000272748
0.000263565
0.000256789
0.000254724
0.000258698
0.000269747
0.000287604
0.000311574
0.000339797
0.000370339
0.000400614
0.000428486
0.00045178
0.000469306
0.000480286
0.000485194
0.000485015
0.000481742
0.000477466
0.000474743
0.000475626
0.000481991
0.000494657
0.000513879
0.000538695
0.000567714
0.000598725
0.000629614
0.000658053
0.000682411
0.000701403
0.000714856
0.000723157
0.000727744
0.00073031
0.000733119
0.000738112
0.000747179
0.000761324
0.000781083
0.000805893
0.000834768
0.000865914
0.000897564
0.000927687
0.000954846
0.00097786
0.000996525
0.00101108
0.00102269
0.0010327
0.00104297
0.00105504
0.00107044
0.00108991
0.00111385
0.00114172
0.00117273
0.0012054
0.00123837
0.00127008
0.00129953
0.00132592
0.00134925
0.00136984
0.00138869
0.00140686
0.00142579
0.00144654
0.00147016
0.00149699
0.0015272
0.0015602
0.00159533
0.00163142
0.00166753
0.0017026
0.0017361
0.0017676
0.00179735
0.00182569
0.0018535
0.00188152
0.00191078
0.00194189
0.00197546
0.00201153
0.0020501
0.00209059
0.00213253
0.00217506
0.0022177
0.00225977
0.00230115
0.00234166
0.00238169
0.00242151
0.00246185
0.00250313
0.00254606
0.00259088
0.00263795
0.00268714
0.00273844
0.00279137
0.00284573
0.00290098
0.00295698
0.0030134
0.00307037
0.00312785
0.00318628
0.00324582
0.00330703
0.00337009
0.00343548
0.00350316
0.00357339
0.00364585
0.00372055
0.00379697
0.00387495
0.00395387
0.00403356
0.00411341
0.0041933
0.00427266
0.0043514
0.00442893
0.00450513
0.00457934
0.00465142
0.00472073
0.00478734
0.00485083
-6.08723e-06
-1.49829e-05
-1.93708e-05
-1.96534e-05
-1.60883e-05
-9.50255e-06
-4.47909e-07
1.00493e-05
2.14181e-05
3.27126e-05
4.34725e-05
5.28518e-05
6.05169e-05
6.57433e-05
6.84143e-05
6.80323e-05
6.47169e-05
5.81836e-05
4.88096e-05
3.66035e-05
2.22886e-05
6.24734e-06
-1.04978e-05
-2.73141e-05
-4.30289e-05
-5.6906e-05
-6.77468e-05
-7.4857e-05
-7.72596e-05
-7.45994e-05
-6.64311e-05
-5.31057e-05
-3.49211e-05
-1.29125e-05
1.2009e-05
3.83058e-05
6.46528e-05
8.92655e-05
0.00011079
0.0001277
0.000139113
0.000144416
0.000143785
0.000137533
0.000126889
0.000113128
9.82693e-05
8.41366e-05
7.30239e-05
6.65218e-05
6.62804e-05
7.29522e-05
8.68891e-05
0.000107271
0.00013305
0.000162228
0.000192858
0.000222407
0.000248828
0.00027
0.000284784
0.000292364
0.000293156
0.000288032
0.000278927
0.000267891
0.000257588
0.000250302
0.000248354
0.000253113
0.000265459
0.000284986
0.000310744
0.000340718
0.000372704
0.000403971
0.000432196
0.000455186
0.000471746
0.000481279
0.000484431
0.000482436
0.000477478
0.0004719
0.000468395
0.000469148
0.00047601
0.000489737
0.000510383
0.000536814
0.000567389
0.000599714
0.000631444
0.000660151
0.00068413
0.000702186
0.000714263
0.000720976
0.000723947
0.000725112
0.000726897
0.000731404
0.000740549
0.000755321
0.000776105
0.000802186
0.000832354
0.000864638
0.000897065
0.0009275
0.000954427
0.000976723
0.00099427
0.00100749
0.0010177
0.00102647
0.0010358
0.00104737
0.00106271
0.00108258
0.00110723
0.00113602
0.00116795
0.0012014
0.00123484
0.00126664
0.00129575
0.00132142
0.00134373
0.00136313
0.00138076
0.00139786
0.00141596
0.00143621
0.00145968
0.00148669
0.00151729
0.00155079
0.00158638
0.00162277
0.00165891
0.0016937
0.00172659
0.00175719
0.00178583
0.00181295
0.00183955
0.00186649
0.00189486
0.00192531
0.00195845
0.00199427
0.00203268
0.00207301
0.00211469
0.0021568
0.00219875
0.00223987
0.00228004
0.00231912
0.00235756
0.00239573
0.00243439
0.00247405
0.00251543
0.00255878
0.00260443
0.00265219
0.00270198
0.00275324
0.0028057
0.00285876
0.00291223
0.00296574
0.00301943
0.00307326
0.00312767
0.00318283
0.00323929
0.00329719
0.00335694
0.00341845
0.00348183
0.00354669
0.00361289
0.00367982
0.00374724
0.00381449
0.00388137
0.00394732
0.00401227
0.00407574
0.00413779
0.00419797
0.00425633
0.0043124
0.00436626
0.00441753
0.00446633
0.00451222
-1.36986e-05
-1.87702e-05
-2.05386e-05
-1.92113e-05
-1.48988e-05
-8.06153e-06
9.36801e-07
1.14013e-05
2.28399e-05
3.44343e-05
4.56565e-05
5.56276e-05
6.38633e-05
6.95601e-05
7.24551e-05
7.20407e-05
6.83522e-05
6.116e-05
5.07985e-05
3.73874e-05
2.1649e-05
4.09759e-06
-1.42023e-05
-3.24571e-05
-4.94283e-05
-6.4233e-05
-7.56215e-05
-8.27879e-05
-8.47622e-05
-8.11819e-05
-7.16893e-05
-5.66767e-05
-3.65984e-05
-1.25699e-05
1.43067e-05
4.23782e-05
7.01218e-05
9.56546e-05
0.000117478
0.00013404
0.000144516
0.000148322
0.000145741
0.000137306
0.000124394
0.000108515
9.18565e-05
7.6481e-05
6.47518e-05
5.83896e-05
5.90003e-05
6.71574e-05
8.30301e-05
0.000105648
0.000133725
0.000165045
0.000197395
0.000228057
0.000254819
0.000275526
0.000289062
0.000294784
0.000293313
0.000285773
0.000274359
0.000261412
0.000249812
0.000242016
0.000240385
0.000246249
0.000260318
0.000281992
0.000310046
0.000342197
0.000375941
0.000408327
0.000436856
0.000459302
0.00047453
0.00048215
0.000483035
0.000478715
0.000471666
0.000464518
0.000460161
0.000460891
0.000468524
0.000483688
0.000506208
0.000534712
0.000567254
0.000601166
0.000633855
0.000662757
0.00068613
0.000702887
0.000713151
0.000717789
0.000718701
0.00071812
0.000718699
0.000722703
0.000732078
0.000747748
0.00076992
0.000797667
0.000829505
0.000863202
0.000896547
0.000927265
0.000953785
0.000975054
0.000991089
0.00100253
0.00101093
0.00101813
0.00102632
0.00103732
0.00105271
0.00107318
0.00109885
0.00112886
0.001162
0.00119643
0.00123044
0.00126227
0.00129086
0.00131551
0.00133642
0.00135422
0.00137027
0.001386
0.00140308
0.00142278
0.00144615
0.00147347
0.00150465
0.00153884
0.00157503
0.00161178
0.00164793
0.00168229
0.00171432
0.00174369
0.00177085
0.00179639
0.00182145
0.00184704
0.00187432
0.001904
0.00193666
0.00197223
0.00201049
0.00205066
0.00209203
0.00213356
0.00217461
0.00221448
0.00225307
0.00229031
0.00232672
0.00236278
0.00239934
0.00243699
0.00247646
0.00251801
0.00256193
0.00260795
0.00265588
0.0027051
0.00275521
0.00280554
0.00285587
0.0029058
0.00295546
0.00300484
0.00305441
0.00310435
0.00315523
0.00320717
0.00326055
0.00331522
0.00337125
0.00342814
0.0034857
0.00354327
0.00360057
0.00365695
0.00371223
0.00376591
0.00381801
0.00386818
0.00391657
0.00396288
0.00400733
0.00404965
0.00409007
0.00412825
0.00416435
0.00419792
-2.12327e-05
-2.35348e-05
-2.31075e-05
-2.01019e-05
-1.46046e-05
-6.94682e-06
2.60373e-06
1.35024e-05
2.53359e-05
3.73879e-05
4.91117e-05
5.9624e-05
6.83514e-05
7.44348e-05
7.74743e-05
7.69105e-05
7.2701e-05
6.4628e-05
5.30233e-05
3.80773e-05
2.0557e-05
1.10041e-06
-1.91239e-05
-3.91637e-05
-5.76567e-05
-7.35531e-05
-8.5519e-05
-9.2669e-05
-9.40195e-05
-8.92198e-05
-7.80028e-05
-6.08493e-05
-3.83654e-05
-1.18253e-05
1.74674e-05
4.76718e-05
7.7063e-05
0.000103602
0.000125673
0.000141707
0.000150911
0.00015279
0.00014778
0.000136626
0.000120937
0.000102493
8.37322e-05
6.69231e-05
5.45675e-05
4.84858e-05
5.02452e-05
6.02967e-05
7.86085e-05
0.000103988
0.000134861
0.000168727
0.000203076
0.000234963
0.000262008
0.000282021
0.000293946
0.000297338
0.000293069
0.000282585
0.000268405
0.0002532
0.000240122
0.000231816
0.000230693
0.000238001
0.000254255
0.0002786
0.000309473
0.000344234
0.000380035
0.00041365
0.000442408
0.000464054
0.000477565
0.000482768
0.000480839
0.000473677
0.00046413
0.000455159
0.000449885
0.00045071
0.000459397
0.00047641
0.000501305
0.000532369
0.000567288
0.000603049
0.000636784
0.00066578
0.000688286
0.000703342
0.000711298
0.000713345
0.000711743
0.000709078
0.00070828
0.000711785
0.000721563
0.00073844
0.000762411
0.000792257
0.000826148
0.000861527
0.000895905
0.000926848
0.000952743
0.00097262
0.000986686
0.000995859
0.00100202
0.00100731
0.00101417
0.00102457
0.00104014
0.00106145
0.00108845
0.00112004
0.0011547
0.0011903
0.00122493
0.00125671
0.00128454
0.00130781
0.00132689
0.00134267
0.00135675
0.0013708
0.0013867
0.0014058
0.00142914
0.00145692
0.00148887
0.00152394
0.00156087
0.00159805
0.00163413
0.00166788
0.00169874
0.00172652
0.00175179
0.00177536
0.00179853
0.00182248
0.00184849
0.0018773
0.00190944
0.00194475
0.00198288
0.00202287
0.00206383
0.00210464
0.00214453
0.00218282
0.00221942
0.00225436
0.00228827
0.00232176
0.00235579
0.00239103
0.00242825
0.00246769
0.00250958
0.00255356
0.00259933
0.00264613
0.00269346
0.00274058
0.00278721
0.00283295
0.00287794
0.00292223
0.00296633
0.00301048
0.00305528
0.00310087
0.00314763
0.00319536
0.0032441
0.00329329
0.00334269
0.0033916
0.00343973
0.00348642
0.00353156
0.00357471
0.00361598
0.00365512
0.00369244
0.00372779
0.00376154
0.00379352
0.00382402
0.0038527
0.00387971
0.00390462
-2.84847e-05
-2.90165e-05
-2.69287e-05
-2.23697e-05
-1.54578e-05
-6.53025e-06
4.12568e-06
1.60097e-05
2.87218e-05
4.1573e-05
5.40147e-05
6.51447e-05
7.42834e-05
8.05969e-05
8.36264e-05
8.27368e-05
7.78167e-05
6.86262e-05
5.54953e-05
3.86663e-05
1.89852e-05
-2.78319e-06
-2.53289e-05
-4.75207e-05
-6.78237e-05
-8.50124e-05
-9.76324e-05
-0.000104713
-0.000105248
-9.89183e-05
-8.55552e-05
-6.57611e-05
-4.03234e-05
-1.07282e-05
2.14819e-05
5.42224e-05
8.55396e-05
0.000113208
0.000135501
0.000150811
0.00015839
0.000157869
0.000149881
0.00013543
0.000116425
9.49525e-05
7.37347e-05
5.52917e-05
4.22939e-05
3.66392e-05
3.98519e-05
5.22395e-05
7.35355e-05
0.000102249
0.000136453
0.000173299
0.000209939
0.000243167
0.000270437
0.000289519
0.000299451
0.000300006
0.000292371
0.000278377
0.000260938
0.00024311
0.00022836
0.00021954
0.00021911
0.000228219
0.000247155
0.000274727
0.000308959
0.000346783
0.00038495
0.000419917
0.00044883
0.000469416
0.000480783
0.00048303
0.000477716
0.000467182
0.000454714
0.000443653
0.000437386
0.000438421
0.000448462
0.000467766
0.000495551
0.00052968
0.000567392
0.000605272
0.000640142
0.000669128
0.000690478
0.000703389
0.000708509
0.000707429
0.000702843
0.000697748
0.000695394
0.000698403
0.00070877
0.000727193
0.000753396
0.000785789
0.000822124
0.000859453
0.000894974
0.000926067
0.000951081
0.000969165
0.000980773
0.000987178
0.000990646
0.000993679
0.000999013
0.0010088
0.00102466
0.00104708
0.00107576
0.00110927
0.00114573
0.00118271
0.00121801
0.00124962
0.00127642
0.00129792
0.00131473
0.00132803
0.00133974
0.00135182
0.00136635
0.00138479
0.00140819
0.00143658
0.00146951
0.00150564
0.00154344
0.00158105
0.00161697
0.00164988
0.00167927
0.00170507
0.00172803
0.0017492
0.00177013
0.00179217
0.00181671
0.00184453
0.00187612
0.00191118
0.00194916
0.00198893
0.0020294
0.00206929
0.00210776
0.00214411
0.00217829
0.00221047
0.00224141
0.00227187
0.00230295
0.0023354
0.00237004
0.00240709
0.00244669
0.00248838
0.00253171
0.00257579
0.00262
0.00266352
0.00270601
0.00274711
0.00278699
0.00282577
0.00286404
0.00290213
0.0029407
0.00297993
0.0030202
0.0030613
0.0031032
0.00314533
0.00318736
0.00322856
0.00326863
0.00330692
0.00334337
0.00337761
0.00340986
0.00344
0.00346847
0.00349526
0.00352083
0.00354503
0.00356815
0.00358987
0.00361031
0.00362907
-3.55788e-05
-3.50426e-05
-3.17277e-05
-2.57985e-05
-1.74146e-05
-6.96103e-06
5.21468e-06
1.85496e-05
3.26048e-05
4.66613e-05
6.01146e-05
7.2026e-05
8.17048e-05
8.82283e-05
9.11004e-05
8.96752e-05
8.38101e-05
7.32355e-05
5.82779e-05
3.92236e-05
1.70085e-05
-7.47096e-06
-3.27364e-05
-5.74551e-05
-7.98842e-05
-9.86089e-05
-0.000112019
-0.000119035
-0.00011862
-0.000110488
-9.45845e-05
-7.16574e-05
-4.27083e-05
-9.47934e-06
2.61976e-05
6.19466e-05
9.55386e-05
0.000124532
0.000147062
0.000161479
0.000167097
0.000163691
0.000152143
0.00013377
0.000110842
8.58091e-05
6.17378e-05
4.14285e-05
2.77419e-05
2.26449e-05
2.76126e-05
4.27936e-05
6.76401e-05
0.000100292
0.000138408
0.000178716
0.000217988
0.000252717
0.000280173
0.000298093
0.000305627
0.000302808
0.000291201
0.000273088
0.000251857
0.000231008
0.000214365
0.000205001
0.000205435
0.000216708
0.000238828
0.000270199
0.000308356
0.000349728
0.0003906
0.000427074
0.000456093
0.000475363
0.000484154
0.000482897
0.000473606
0.000459142
0.000443298
0.00042985
0.000422479
0.000423817
0.000435501
0.000457534
0.000488721
0.000526428
0.000567371
0.000607666
0.000643787
0.000672673
0.000692578
0.000702899
0.00070465
0.000699895
0.000691836
0.000683938
0.000679818
0.00068231
0.000693435
0.000713731
0.000742587
0.000777969
0.000817144
0.000856706
0.000893491
0.000924668
0.000948552
0.000964443
0.000973109
0.000976237
0.000976548
0.00097697
0.000980565
0.000989673
0.00100594
0.00102971
0.00106038
0.00109615
0.0011347
0.00117323
0.00120924
0.00124056
0.00126607
0.00128542
0.00129952
0.00130988
0.00131881
0.00132861
0.00134158
0.00135931
0.0013828
0.00141195
0.00144602
0.00148337
0.00152214
0.0015602
0.00159585
0.00162771
0.0016553
0.00167871
0.00169894
0.00171731
0.00173563
0.00175546
0.00177833
0.00180505
0.00183602
0.00187081
0.00190863
0.00194813
0.00198799
0.00202678
0.00206356
0.00209762
0.00212899
0.00215796
0.00218548
0.00221248
0.0022402
0.00226953
0.00230131
0.00233572
0.00237284
0.00241205
0.00245275
0.00249391
0.00253478
0.00257445
0.00261256
0.00264876
0.00268329
0.00271638
0.00274872
0.00278076
0.00281322
0.00284634
0.00288051
0.00291552
0.00295126
0.00298711
0.00302269
0.00305721
0.00309036
0.00312151
0.00315063
0.00317744
0.00320227
0.00322515
0.00324661
0.00326671
0.00328595
0.0033042
0.00332177
0.00333831
0.00335395
0.00336826
-4.27409e-05
-4.15361e-05
-3.7258e-05
-3.00949e-05
-2.02473e-05
-8.15453e-06
5.765e-06
2.08724e-05
3.66327e-05
5.2255e-05
6.70532e-05
8.00349e-05
9.04237e-05
9.72252e-05
9.99124e-05
9.78229e-05
9.07957e-05
7.85722e-05
6.14985e-05
3.98974e-05
1.47935e-05
-1.27761e-05
-4.11455e-05
-6.87665e-05
-9.36631e-05
-0.00011421
-0.000128606
-0.000135651
-0.000134248
-0.000124137
-0.000105362
-7.88748e-05
-4.58959e-05
-8.46335e-06
3.12633e-05
7.05571e-05
0.000106866
0.000137482
0.000160369
0.000173815
0.000177197
0.00017048
0.000154811
0.000131874
0.000104358
7.51528e-05
4.77326e-05
2.5233e-05
1.07278e-05
6.26149e-06
1.32434e-05
3.16503e-05
6.06062e-05
9.78262e-05
0.000140481
0.000184812
0.000227136
0.000263595
0.000291253
0.000307817
0.000312565
0.000305837
0.000289634
0.000266763
0.000241158
0.000216831
0.00019801
0.00018802
0.000189443
0.000203201
0.000228983
0.000264718
0.000307382
0.000352823
0.000396795
0.00043499
0.000464124
0.000481875
0.000487697
0.000482407
0.000468546
0.000449566
0.000429843
0.000413647
0.000405001
0.000406674
0.000420234
0.000445384
0.000480462
0.000522257
0.000566892
0.000609944
0.000647485
0.000676238
0.000694464
0.000701795
0.000699668
0.000690689
0.000678639
0.000667523
0.000661373
0.000663264
0.000675252
0.000697684
0.000729567
0.00076836
0.00081077
0.000852869
0.000891076
0.000922319
0.000944876
0.00095823
0.000963505
0.000962866
0.000959553
0.000956979
0.000958579
0.000966907
0.000983632
0.00100892
0.00104185
0.00108016
0.00112107
0.00116132
0.00119809
0.00122903
0.001253
0.00126987
0.00128083
0.00128783
0.00129358
0.00130076
0.00131196
0.00132887
0.00135245
0.00138244
0.00141779
0.00145648
0.00149631
0.00153482
0.0015701
0.0016007
0.00162619
0.00164685
0.00166395
0.00167912
0.00169446
0.00171178
0.00173276
0.00175822
0.0017885
0.00182296
0.00186059
0.00189975
0.00193891
0.00197643
0.00201129
0.00204275
0.00207094
0.00209632
0.00212001
0.00214316
0.0021672
0.00219311
0.00222178
0.00225338
0.00228787
0.00232451
0.00236251
0.00240069
0.00243814
0.00247389
0.00250755
0.0025388
0.00256797
0.00259539
0.00262191
0.00264807
0.00267471
0.00270214
0.00273074
0.00276028
0.00279061
0.00282104
0.00285111
0.00287998
0.00290731
0.00293248
0.00295551
0.00297623
0.00299504
0.00301207
0.00302791
0.00304269
0.00305693
0.00307055
0.00308383
0.00309644
0.00310848
0.00311949
-5.01138e-05
-4.84471e-05
-4.33461e-05
-3.50313e-05
-2.37371e-05
-9.9569e-06
5.82492e-06
2.28796e-05
4.05801e-05
5.80283e-05
7.44418e-05
8.8727e-05
0.000100009
0.000107249
0.000109826
0.000107058
9.87699e-05
8.47286e-05
6.5294e-05
4.08688e-05
1.25633e-05
-1.84372e-05
-5.02748e-05
-8.11608e-05
-0.000108877
-0.000131556
-0.000147191
-0.000154442
-0.000152118
-0.000139968
-0.000118131
-8.77645e-05
-5.03395e-05
-8.2042e-06
3.61294e-05
7.9532e-05
0.000119079
0.000151734
0.000175244
0.000187801
0.000188841
0.000178511
0.000158274
0.000130191
9.74191e-05
6.33491e-05
3.19475e-05
6.7638e-06
-8.85166e-06
-1.27456e-05
-3.58565e-06
1.83882e-05
5.19525e-05
9.43535e-05
0.000142209
0.000191195
0.000237091
0.000275626
0.000303615
0.000318731
0.000320409
0.00030931
0.000287919
0.000259638
0.000229018
0.000200663
0.000179272
0.000168466
0.000170897
0.000187357
0.000217193
0.000257815
0.00030557
0.000355644
0.000403185
0.000443411
0.000472771
0.000488907
0.000491467
0.000481684
0.000462683
0.000438583
0.00041442
0.000395034
0.000384843
0.000386777
0.000402332
0.000430895
0.000470289
0.000516663
0.00056547
0.000611674
0.000650884
0.000679571
0.000695992
0.000700027
0.000693575
0.000679845
0.000663272
0.000648467
0.000639945
0.000641055
0.000653896
0.000678617
0.000713814
0.000756383
0.000802408
0.000847371
0.000887219
0.000918595
0.000939731
0.000950297
0.000951806
0.000946952
0.000939554
0.000933569
0.000932859
0.000940223
0.000957357
0.000984249
0.0010196
0.00106067
0.00110416
0.00114631
0.00118392
0.00121443
0.00123671
0.00125082
0.00125829
0.00126153
0.00126371
0.00126793
0.00127708
0.00129299
0.00131661
0.00134745
0.00138413
0.00142425
0.0014652
0.00150417
0.00153902
0.00156819
0.00159135
0.00160895
0.00162256
0.00163415
0.00164615
0.00166065
0.00167947
0.00170349
0.00173293
0.00176699
0.00180437
0.00184316
0.00188153
0.00191767
0.00195042
0.00197906
0.0020038
0.00202527
0.00204481
0.0020638
0.00208386
0.00210611
0.0021315
0.00216017
0.00219199
0.00222605
0.00226139
0.00229664
0.00233076
0.00236269
0.002392
0.00241841
0.00244236
0.0024643
0.00248522
0.00250582
0.00252703
0.00254923
0.00257284
0.00259758
0.00262326
0.0026491
0.00267457
0.00269877
0.0027213
0.00274159
0.00275967
0.00277541
0.00278931
0.00280153
0.00281277
0.0028232
0.0028334
0.00284331
0.00285322
0.00286278
0.00287206
0.00288057
-5.77426e-05
-5.57075e-05
-4.98583e-05
-4.04419e-05
-2.77207e-05
-1.22422e-05
5.44904e-06
2.45393e-05
4.43033e-05
6.37304e-05
8.19214e-05
9.76722e-05
0.000110023
0.000117841
0.000120438
0.000117069
0.000107538
9.16212e-05
6.97126e-05
4.22808e-05
1.05432e-05
-2.41565e-05
-5.97689e-05
-9.425e-05
-0.000125119
-0.00015025
-0.000167419
-0.000175113
-0.000172037
-0.00015793
-0.000133011
-9.8608e-05
-5.6468e-05
-9.26147e-06
4.01382e-05
8.81756e-05
0.0001315
0.000166698
0.000191246
0.000203198
0.000202003
0.000187973
0.000162881
0.000129213
9.05965e-05
5.09782e-05
1.48919e-05
-1.36178e-05
-3.08392e-05
-3.44456e-05
-2.31376e-05
2.57648e-06
4.10989e-05
8.919e-05
0.000142869
0.000197173
0.000247265
0.000288383
0.000317033
0.000330807
0.000329299
0.000313519
0.000286449
0.000252135
0.000215822
0.000182789
0.000158291
0.000146308
0.000149605
0.00016882
0.000202959
0.000248888
0.000302272
0.000357566
0.000409224
0.000451914
0.000481757
0.000496331
0.000495488
0.000480879
0.000456249
0.000426442
0.000397237
0.000374126
0.000361991
0.000363969
0.000381483
0.000413607
0.000457629
0.00050901
0.000562464
0.000612265
0.000653487
0.000682301
0.000696937
0.00069751
0.000686399
0.000667457
0.000645834
0.000626828
0.0006155
0.000615527
0.000629073
0.000656092
0.000694758
0.000741374
0.00079135
0.000839514
0.000881279
0.000912958
0.000932701
0.000940356
0.000937836
0.000928394
0.000916477
0.000906643