/*--------------------------------*- C++ -*----------------------------------*\
| =========                 |                                                 |
| \\      /  F ield         | OpenFOAM: The Open Source CFD Toolbox           |
|  \\    /   O peration     | Version:  v1912                                 |
|   \\  /    A nd           | Website:  www.openfoam.com                      |
|    \\/     M anipulation  |                                                 |
\*---------------------------------------------------------------------------*/
FoamFile
{
    version     2.0;
    format      ascii;
    class       surfaceScalarField;
    location    "0.5";
    object      phi;
}
// * * * * * * * * * * * * * * * * * * * * * * * * * * * * * * * * * * * * * //

dimensions      [0 3 -1 0 0 0 0];
oriented        oriented;


internalField   nonuniform List<scalar> 
23660
(
3.87646e-06
8.26716e-10
3.87652e-06
-9.74051e-10
3.87647e-06
8.52513e-10
3.87639e-06
-8.6911e-10
3.87633e-06
8.72064e-10
3.87628e-06
-8.32758e-10
3.87625e-06
8.53118e-10
3.87622e-06
-8.16883e-10
3.87623e-06
8.29053e-10
3.87622e-06
-8.00961e-10
3.87623e-06
8.14528e-10
3.87623e-06
-7.86926e-10
3.87623e-06
7.94359e-10
3.87625e-06
-7.78239e-10
3.87626e-06
7.66492e-10
3.87629e-06
-7.75555e-10
3.87631e-06
7.33523e-10
3.87634e-06
-7.7568e-10
3.87638e-06
6.98731e-10
3.87641e-06
-7.73243e-10
3.87644e-06
6.69879e-10
3.87647e-06
-7.75381e-10
3.87648e-06
6.48077e-10
3.8765e-06
-7.64145e-10
3.8765e-06
6.38777e-10
3.87651e-06
-7.39277e-10
3.87649e-06
6.41051e-10
3.87648e-06
-7.03028e-10
3.87645e-06
6.51707e-10
3.87642e-06
-6.62201e-10
3.87637e-06
6.63431e-10
3.87634e-06
-6.21999e-10
3.87628e-06
6.71628e-10
3.87624e-06
-5.90916e-10
3.87619e-06
6.79371e-10
3.87617e-06
-5.69441e-10
3.87612e-06
6.73589e-10
3.87611e-06
-5.58009e-10
3.87607e-06
6.56353e-10
3.87607e-06
-5.55406e-10
3.87604e-06
6.31819e-10
3.87605e-06
-5.57134e-10
3.87603e-06
6.05533e-10
3.87604e-06
-5.59309e-10
3.87601e-06
5.76234e-10
3.87601e-06
-5.61618e-10
3.87598e-06
5.6258e-10
3.87598e-06
-5.48385e-10
3.87593e-06
5.61479e-10
3.87592e-06
-5.23281e-10
3.87586e-06
5.6824e-10
3.87584e-06
-4.92477e-10
3.87577e-06
5.77263e-10
3.87574e-06
-4.62972e-10
3.87568e-06
5.86476e-10
3.87565e-06
-4.43154e-10
3.87559e-06
5.86491e-10
3.87558e-06
-4.31188e-10
3.87552e-06
5.75842e-10
3.87551e-06
-4.26928e-10
3.87546e-06
5.58434e-10
3.87545e-06
-4.27327e-10
3.8754e-06
5.36575e-10
3.87539e-06
-4.29155e-10
3.87534e-06
5.17403e-10
3.87533e-06
-4.25124e-10
3.87527e-06
5.12271e-10
3.87525e-06
-4.09932e-10
3.87519e-06
5.15066e-10
3.87516e-06
-3.87191e-10
3.87509e-06
5.22879e-10
3.87506e-06
-3.64717e-10
3.87498e-06
5.31127e-10
3.87496e-06
-3.48483e-10
3.87488e-06
5.32622e-10
3.87486e-06
-3.38752e-10
3.87478e-06
5.25786e-10
3.87476e-06
-3.34843e-10
3.87469e-06
5.13053e-10
3.87467e-06
-3.34241e-10
3.8746e-06
4.97732e-10
3.87458e-06
-3.32023e-10
3.87451e-06
4.86564e-10
3.87449e-06
-3.24408e-10
3.87441e-06
4.84973e-10
3.87438e-06
-3.1035e-10
3.87429e-06
4.90702e-10
3.87427e-06
-2.93749e-10
3.87417e-06
4.98668e-10
3.87414e-06
-2.79108e-10
3.87405e-06
5.02226e-10
3.87402e-06
-2.6881e-10
3.87392e-06
5.00378e-10
3.8739e-06
-2.62862e-10
3.8738e-06
4.94272e-10
3.87377e-06
-2.59524e-10
3.87368e-06
4.86158e-10
3.87365e-06
-2.55957e-10
3.87356e-06
4.7957e-10
3.87353e-06
-2.49423e-10
3.87343e-06
4.78067e-10
3.8734e-06
-2.38881e-10
3.87329e-06
4.81739e-10
3.87326e-06
-2.2624e-10
3.87314e-06
4.8713e-10
3.87311e-06
-2.14195e-10
3.87299e-06
4.91004e-10
3.87296e-06
-2.0463e-10
3.87284e-06
4.91926e-10
3.8728e-06
-1.97788e-10
3.87269e-06
4.90268e-10
3.87265e-06
-1.9244e-10
3.87253e-06
4.87497e-10
3.87249e-06
-1.86894e-10
3.87237e-06
4.85759e-10
3.87233e-06
-1.79649e-10
3.87221e-06
4.86914e-10
3.87217e-06
-1.7017e-10
3.87204e-06
4.91017e-10
3.87199e-06
-1.59454e-10
3.87186e-06
4.9646e-10
3.87181e-06
-1.49044e-10
3.87168e-06
5.01476e-10
3.87163e-06
-1.39953e-10
3.87149e-06
5.05069e-10
3.87144e-06
-1.32263e-10
3.8713e-06
5.07349e-10
3.87124e-06
-1.25222e-10
3.8711e-06
5.09221e-10
3.87104e-06
-1.17844e-10
3.8709e-06
5.11971e-10
3.87084e-06
-1.09347e-10
3.87069e-06
5.16639e-10
3.87063e-06
-9.95716e-11
3.87047e-06
5.23294e-10
3.87041e-06
-8.90728e-11
3.87025e-06
5.31068e-10
3.87018e-06
-7.86907e-11
3.87001e-06
5.38925e-10
3.86995e-06
-6.89186e-11
3.86977e-06
5.46335e-10
3.8697e-06
-5.96492e-11
3.86952e-06
5.53477e-10
3.86945e-06
-5.03506e-11
3.86927e-06
5.61045e-10
3.8692e-06
-4.04429e-11
3.86901e-06
5.69873e-10
3.86893e-06
-2.96436e-11
3.86873e-06
5.80466e-10
3.86865e-06
-1.8164e-11
3.86845e-06
5.92645e-10
3.86837e-06
-6.75329e-12
3.86815e-06
6.05673e-10
3.86807e-06
6.8721e-12
3.86785e-06
6.18659e-10
3.86776e-06
2.32921e-11
3.86753e-06
6.31514e-10
3.86744e-06
3.88973e-11
3.8672e-06
6.44935e-10
3.8671e-06
5.48376e-11
3.86686e-06
6.59533e-10
3.86675e-06
7.17233e-11
3.8665e-06
6.75777e-10
3.86639e-06
8.98547e-11
3.86613e-06
6.93763e-10
3.86601e-06
1.09167e-10
3.86574e-06
7.13071e-10
3.86562e-06
1.29231e-10
3.86533e-06
7.33307e-10
3.8652e-06
1.50145e-10
3.8649e-06
7.54577e-10
3.86475e-06
1.71825e-10
3.86444e-06
7.77275e-10
3.86428e-06
1.94887e-10
3.86396e-06
8.0206e-10
3.86378e-06
2.19987e-10
3.86344e-06
8.2964e-10
3.86325e-06
2.47811e-10
3.86289e-06
8.6071e-10
3.86268e-06
2.7901e-10
3.8623e-06
8.95895e-10
3.86207e-06
3.14226e-10
3.86166e-06
9.35805e-10
3.86141e-06
3.54219e-10
3.86097e-06
9.81269e-10
3.86069e-06
4.00183e-10
3.86022e-06
1.03389e-09
3.85991e-06
4.54391e-10
3.85939e-06
1.09693e-09
3.85904e-06
5.2138e-10
3.85847e-06
1.17798e-09
3.85805e-06
6.1307e-10
3.85738e-06
1.30025e-09
3.85685e-06
7.61854e-10
3.856e-06
1.51517e-09
3.85526e-06
1.0286e-09
3.85409e-06
1.89801e-09
3.85297e-06
1.50508e-09
3.85127e-06
2.55326e-09
1.96132e-09
3.84999e-06
4.18597e-06
7.20482e-10
4.18584e-06
-8.52495e-10
4.18592e-06
7.80694e-10
4.18578e-06
-7.36734e-10
4.18584e-06
8.14915e-10
4.18571e-06
-6.99044e-10
4.18577e-06
7.94767e-10
4.18564e-06
-6.94922e-10
4.18571e-06
7.59208e-10
4.1856e-06
-6.88112e-10
4.18568e-06
7.36231e-10
4.18558e-06
-6.85642e-10
4.18567e-06
7.03489e-10
4.18558e-06
-6.94538e-10
4.18569e-06
6.57988e-10
4.18563e-06
-7.13733e-10
4.18576e-06
6.08279e-10
4.18572e-06
-7.36756e-10
4.18585e-06
5.63398e-10
4.18583e-06
-7.50109e-10
4.18597e-06
5.3148e-10
4.18594e-06
-7.46653e-10
4.18607e-06
5.20447e-10
4.18602e-06
-7.20119e-10
4.18613e-06
5.31956e-10
4.18606e-06
-6.70738e-10
4.18614e-06
5.63036e-10
4.18604e-06
-6.03382e-10
4.18608e-06
6.07339e-10
4.18596e-06
-5.36444e-10
4.18597e-06
6.49981e-10
4.18583e-06
-4.79868e-10
4.18583e-06
6.75878e-10
4.18568e-06
-4.44079e-10
4.18568e-06
6.7748e-10
4.18555e-06
-4.35131e-10
4.18557e-06
6.5321e-10
4.18545e-06
-4.46151e-10
4.1855e-06
6.10133e-10
4.18542e-06
-4.7027e-10
4.18549e-06
5.61501e-10
4.18543e-06
-4.97215e-10
4.18551e-06
5.22435e-10
4.18546e-06
-5.10248e-10
4.18554e-06
4.99263e-10
4.18548e-06
-5.03098e-10
4.18554e-06
5.00509e-10
4.18546e-06
-4.70377e-10
4.1855e-06
5.23599e-10
4.1854e-06
-4.19503e-10
4.18541e-06
5.576e-10
4.18528e-06
-3.69391e-10
4.18527e-06
5.87534e-10
4.18514e-06
-3.32876e-10
4.18513e-06
5.97669e-10
4.18501e-06
-3.1946e-10
4.18501e-06
5.82486e-10
4.18491e-06
-3.24764e-10
4.18493e-06
5.51942e-10
4.18484e-06
-3.40131e-10
4.18488e-06
5.18089e-10
4.18481e-06
-3.55876e-10
4.18486e-06
4.92505e-10
4.18479e-06
-3.59423e-10
4.18482e-06
4.81917e-10
4.18474e-06
-3.44167e-10
4.18476e-06
4.92573e-10
4.18466e-06
-3.10895e-10
4.18466e-06
5.15896e-10
4.18455e-06
-2.71942e-10
4.18453e-06
5.40066e-10
4.18441e-06
-2.42346e-10
4.18439e-06
5.51112e-10
4.18427e-06
-2.28947e-10
4.18426e-06
5.41565e-10
4.18415e-06
-2.30275e-10
4.18415e-06
5.20802e-10
4.18406e-06
-2.39187e-10
4.18407e-06
4.99295e-10
4.18399e-06
-2.47489e-10
4.184e-06
4.84154e-10
4.18391e-06
-2.44842e-10
4.18392e-06
4.82503e-10
4.18382e-06
-2.27957e-10
4.18381e-06
4.94606e-10
4.1837e-06
-2.00913e-10
4.18368e-06
5.13979e-10
4.18356e-06
-1.74057e-10
4.18353e-06
5.29162e-10
4.1834e-06
-1.56195e-10
4.18338e-06
5.30042e-10
4.18326e-06
-1.50429e-10
4.18324e-06
5.20113e-10
4.18313e-06
-1.52359e-10
4.18312e-06
5.07398e-10
4.18301e-06
-1.55646e-10
4.183e-06
4.97521e-10
4.1829e-06
-1.5303e-10
4.18288e-06
4.96374e-10
4.18277e-06
-1.41294e-10
4.18275e-06
5.04628e-10
4.18263e-06
-1.21684e-10
4.18259e-06
5.18769e-10
4.18247e-06
-1.01146e-10
4.18242e-06
5.30712e-10
4.18229e-06
-8.51889e-11
4.18225e-06
5.34531e-10
4.18212e-06
-7.66141e-11
4.18208e-06
5.31871e-10
4.18196e-06
-7.37234e-11
4.18192e-06
5.26862e-10
4.1818e-06
-7.13905e-11
4.18176e-06
5.2382e-10
4.18164e-06
-6.5521e-11
4.1816e-06
5.26535e-10
4.18148e-06
-5.4038e-11
4.18143e-06
5.35185e-10
4.1813e-06
-3.77427e-11
4.18124e-06
5.47e-10
4.1811e-06
-2.08047e-11
4.18104e-06
5.57487e-10
4.1809e-06
-6.61654e-12
4.18084e-06
5.63623e-10
4.18069e-06
3.82768e-12
4.18063e-06
5.66172e-10
4.18049e-06
1.13482e-11
4.18043e-06
5.67751e-10
4.18028e-06
1.86126e-11
4.18022e-06
5.71364e-10
4.18007e-06
2.80261e-11
4.18001e-06
5.78938e-10
4.17986e-06
4.08236e-11
4.17978e-06
5.90201e-10
4.17963e-06
5.64702e-11
4.17955e-06
6.03148e-10
4.17939e-06
7.28797e-11
4.1793e-06
6.15368e-10
4.17914e-06
8.7898e-11
4.17905e-06
6.25615e-10
4.17888e-06
1.00932e-10
4.17879e-06
6.34443e-10
4.17862e-06
1.12948e-10
4.17853e-06
6.43543e-10
4.17835e-06
1.25633e-10
4.17826e-06
6.54626e-10
4.17808e-06
1.40404e-10
4.17798e-06
6.68501e-10
4.17779e-06
1.57681e-10
4.17769e-06
6.84755e-10
4.17749e-06
1.76805e-10
4.17738e-06
7.02337e-10
4.17718e-06
1.96705e-10
4.17706e-06
7.2053e-10
4.17685e-06
2.16653e-10
4.17673e-06
7.39205e-10
4.17652e-06
2.36771e-10
4.17639e-06
7.58384e-10
4.17618e-06
2.57215e-10
4.17604e-06
7.78673e-10
4.17582e-06
2.79028e-10
4.17568e-06
8.01124e-10
4.17544e-06
3.03083e-10
4.17529e-06
8.26211e-10
4.17505e-06
3.29574e-10
4.17489e-06
8.53775e-10
4.17465e-06
3.58178e-10
4.17447e-06
8.83506e-10
4.17422e-06
3.88545e-10
4.17403e-06
9.15098e-10
4.17376e-06
4.20481e-10
4.17357e-06
9.48559e-10
4.17329e-06
4.54185e-10
4.17308e-06
9.84545e-10
4.17278e-06
4.90657e-10
4.17256e-06
1.02429e-09
4.17225e-06
5.31148e-10
4.17201e-06
1.06902e-09
4.17168e-06
5.76818e-10
4.17142e-06
1.11978e-09
4.17107e-06
6.28676e-10
4.17079e-06
1.17756e-09
4.17042e-06
6.87837e-10
4.17011e-06
1.24371e-09
4.16971e-06
7.55977e-10
4.16937e-06
1.32028e-09
4.16893e-06
8.35503e-10
4.16856e-06
1.41093e-09
4.16808e-06
9.34491e-10
4.16764e-06
1.53051e-09
4.1671e-06
1.06957e-09
4.16658e-06
1.69828e-09
4.16593e-06
1.25805e-09
4.1653e-06
1.93146e-09
4.16454e-06
1.52062e-09
4.16381e-06
2.24963e-09
4.16295e-06
1.87955e-09
4.16218e-06
2.66905e-09
4.16134e-06
2.34607e-09
4.16072e-06
3.17121e-09
2.82547e-09
4.15986e-06
4.52021e-06
5.77704e-10
4.51991e-06
-5.5893e-10
4.5201e-06
5.87652e-10
4.51986e-06
-4.95465e-10
4.52006e-06
6.13511e-10
4.51983e-06
-4.61538e-10
4.52002e-06
6.04779e-10
4.51978e-06
-4.60131e-10
4.51997e-06
5.74045e-10
4.51974e-06
-4.62646e-10
4.51994e-06
5.40964e-10
4.51973e-06
-4.73886e-10
4.51993e-06
4.94785e-10
4.51974e-06
-5.0255e-10
4.51997e-06
4.31737e-10
4.5198e-06
-5.4389e-10
4.52004e-06
3.63739e-10
4.51989e-06
-5.84611e-10
4.52015e-06
3.06375e-10
4.52001e-06
-6.08154e-10
4.52026e-06
2.74466e-10
4.52012e-06
-5.99985e-10
4.52036e-06
2.77455e-10
4.5202e-06
-5.57705e-10
4.52041e-06
3.15517e-10
4.52023e-06
-4.84783e-10
4.52041e-06
3.7904e-10
4.5202e-06
-3.8737e-10
4.52035e-06
4.55244e-10
4.5201e-06
-2.92728e-10
4.52023e-06
5.23866e-10
4.51997e-06
-2.19538e-10
4.52008e-06
5.63194e-10
4.51982e-06
-1.82729e-10
4.51994e-06
5.60345e-10
4.51969e-06
-1.89589e-10
4.51983e-06
5.19298e-10
4.5196e-06
-2.24591e-10
4.51976e-06
4.52642e-10
4.51957e-06
-2.76243e-10
4.51975e-06
3.82838e-10
4.51957e-06
-3.23689e-10
4.51976e-06
3.31486e-10
4.5196e-06
-3.44696e-10
4.51978e-06
3.14395e-10
4.51961e-06
-3.28393e-10
4.51977e-06
3.3558e-10
4.51958e-06
-2.78668e-10
4.51972e-06
3.84215e-10
4.51951e-06
-2.0593e-10
4.51962e-06
4.43726e-10
4.51939e-06
-1.37447e-10
4.51949e-06
4.89912e-10
4.51925e-06
-9.44965e-11
4.51935e-06
4.99802e-10
4.51912e-06
-8.94709e-11
4.51923e-06
4.72884e-10
4.51901e-06
-1.11875e-10
4.51914e-06
4.25517e-10
4.51895e-06
-1.45819e-10
4.51909e-06
3.77233e-10
4.51891e-06
-1.74088e-10
4.51905e-06
3.46992e-10
4.51887e-06
-1.78359e-10
4.519e-06
3.47958e-10
4.51881e-06
-1.53917e-10
4.51893e-06
3.76602e-10
4.51872e-06
-1.05765e-10
4.51882e-06
4.19619e-10
4.5186e-06
-5.3487e-11
4.51868e-06
4.57549e-10
4.51846e-06
-1.7431e-11
4.51854e-06
4.70155e-10
4.51832e-06
-6.33415e-12
4.51841e-06
4.51808e-10
4.5182e-06
-1.81719e-11
4.5183e-06
4.2032e-10
4.5181e-06
-3.92129e-11
4.51821e-06
3.90142e-10
4.51801e-06
-5.43916e-11
4.51812e-06
3.75746e-10
4.51793e-06
-5.11311e-11
4.51802e-06
3.8564e-10
4.51782e-06
-2.73974e-11
4.51791e-06
4.12345e-10
4.51769e-06
9.46328e-12
4.51776e-06
4.44361e-10
4.51755e-06
4.54968e-11
4.51761e-06
4.6573e-10
4.51739e-06
6.62554e-11
4.51745e-06
4.65194e-10
4.51723e-06
6.72308e-11
4.5173e-06
4.49772e-10
4.51709e-06
5.85647e-11
4.51717e-06
4.31006e-10
4.51696e-06
4.96448e-11
4.51704e-06
4.20631e-10
4.51684e-06
5.05095e-11
4.51691e-06
4.27047e-10
4.5167e-06
6.58204e-11
4.51676e-06
4.44998e-10
4.51654e-06
9.34501e-11
4.51659e-06
4.68336e-10
4.51637e-06
1.21452e-10
4.51642e-06
4.86823e-10
4.51619e-06
1.40045e-10
4.51623e-06
4.92304e-10
4.51601e-06
1.46984e-10
4.51605e-06
4.87757e-10
4.51583e-06
1.46821e-10
4.51588e-06
4.8064e-10
4.51566e-06
1.45903e-10
4.51571e-06
4.7906e-10
4.51549e-06
1.51364e-10
4.51553e-06
4.87136e-10
4.51531e-06
1.66741e-10
4.51534e-06
5.02671e-10
4.51511e-06
1.89478e-10
4.51514e-06
5.21775e-10
4.51491e-06
2.11953e-10
4.51493e-06
5.38013e-10
4.51469e-06
2.28948e-10
4.51471e-06
5.47036e-10
4.51447e-06
2.39697e-10
4.51449e-06
5.50636e-10
4.51425e-06
2.46342e-10
4.51427e-06
5.53498e-10
4.51403e-06
2.53289e-10
4.51404e-06
5.6007e-10
4.5138e-06
2.64759e-10
4.51381e-06
5.7227e-10
4.51357e-06
2.82322e-10
4.51357e-06
5.89448e-10
4.51332e-06
3.03988e-10
4.51332e-06
6.08707e-10
4.51306e-06
3.25769e-10
4.51305e-06
6.26291e-10
4.5128e-06
3.44725e-10
4.51278e-06
6.40362e-10
4.51252e-06
3.60408e-10
4.51251e-06
6.52265e-10
4.51224e-06
3.7461e-10
4.51222e-06
6.6483e-10
4.51196e-06
3.90199e-10
4.51193e-06
6.80421e-10
4.51166e-06
4.0946e-10
4.51163e-06
7.00037e-10
4.51136e-06
4.32791e-10
4.51132e-06
7.23021e-10
4.51104e-06
4.58807e-10
4.51099e-06
7.47675e-10
4.5107e-06
4.85549e-10
4.51065e-06
7.72467e-10
4.51035e-06
5.11652e-10
4.5103e-06
7.96882e-10
4.51e-06
5.37294e-10
4.50993e-06
8.21624e-10
4.50963e-06
5.63877e-10
4.50956e-06
8.4805e-10
4.50924e-06
5.93053e-10
4.50917e-06
8.77571e-10
4.50884e-06
6.25797e-10
4.50876e-06
9.10914e-10
4.50843e-06
6.62074e-10
4.50833e-06
9.47848e-10
4.50799e-06
7.01411e-10
4.50789e-06
9.87691e-10
4.50753e-06
7.43345e-10
4.50742e-06
1.02998e-09
4.50705e-06
7.87605e-10
4.50692e-06
1.0749e-09
4.50654e-06
8.34736e-10
4.5064e-06
1.12352e-09
4.50601e-06
8.86161e-10
4.50585e-06
1.17752e-09
4.50544e-06
9.43626e-10
4.50527e-06
1.23861e-09
4.50484e-06
1.00873e-09
4.50465e-06
1.30827e-09
4.5042e-06
1.08292e-09
4.50399e-06
1.388e-09
4.50351e-06
1.16796e-09
4.50327e-06
1.48014e-09
4.50276e-06
1.26715e-09
4.50249e-06
1.58959e-09
4.50194e-06
1.38725e-09
4.50162e-06
1.72541e-09
4.50102e-06
1.53859e-09
4.50065e-06
1.8985e-09
4.49999e-06
1.73135e-09
4.49957e-06
2.118e-09
4.49885e-06
1.97461e-09
4.49839e-06
2.3923e-09
4.49764e-06
2.27728e-09
4.49716e-06
2.72888e-09
4.49639e-06
2.64498e-09
4.49593e-06
3.12686e-09
4.49522e-06
3.0617e-09
4.49492e-06
3.47154e-09
3.54244e-09
4.4942e-06
4.8811e-06
4.22469e-10
4.88079e-06
-2.49897e-10
4.88095e-06
4.30394e-10
4.8807e-06
-2.46549e-10
4.8809e-06
4.12356e-10
4.88068e-06
-2.42544e-10
4.88088e-06
4.10107e-10
4.88065e-06
-2.34128e-10
4.88084e-06
3.88326e-10
4.88062e-06
-2.44478e-10
4.88081e-06
3.50413e-10
4.88061e-06
-2.73102e-10
4.88082e-06
2.89757e-10
4.88064e-06
-3.24939e-10
4.88086e-06
2.11067e-10
4.88071e-06
-3.90781e-10
4.88094e-06
1.29416e-10
4.88081e-06
-4.51274e-10
4.88105e-06
6.43772e-11
4.88092e-06
-4.82759e-10
4.88116e-06
3.58837e-11
4.88103e-06
-4.68734e-10
4.88125e-06
5.47334e-11
4.8811e-06
-4.08337e-10
4.8813e-06
1.18925e-10
4.88113e-06
-3.09746e-10
4.88129e-06
2.18758e-10
4.88109e-06
-1.87829e-10
4.88121e-06
3.31291e-10
4.88099e-06
-7.12801e-11
4.88109e-06
4.26735e-10
4.88085e-06
1.4698e-11
4.88094e-06
4.75382e-10
4.8807e-06
5.20448e-11
4.8808e-06
4.64252e-10
4.88058e-06
3.20836e-11
4.88069e-06
4.07379e-10
4.8805e-06
-2.95909e-11
4.88063e-06
3.2215e-10
4.88046e-06
-1.10502e-10
4.88061e-06
2.36252e-10
4.88046e-06
-1.79388e-10
4.88062e-06
1.7749e-10
4.88048e-06
-2.06354e-10
4.88063e-06
1.67562e-10
4.88048e-06
-1.79676e-10
4.88061e-06
2.06994e-10
4.88044e-06
-1.13133e-10
4.88054e-06
2.83621e-10
4.88036e-06
-2.35913e-11
4.88043e-06
3.68558e-10
4.88023e-06
6.23568e-11
4.8803e-06
4.25737e-10
4.88009e-06
1.10137e-10
4.88016e-06
4.32971e-10
4.87996e-06
1.07334e-10
4.88004e-06
3.98246e-10
4.87986e-06
6.81699e-11
4.87995e-06
3.37118e-10
4.87978e-06
1.58827e-11
4.87988e-06
2.77863e-10
4.87974e-06
-2.65519e-11
4.87984e-06
2.47905e-10
4.87969e-06
-3.16052e-11
4.87978e-06
2.60713e-10
4.87962e-06
1.68952e-12
4.87969e-06
3.05558e-10
4.87952e-06
6.50241e-11
4.87957e-06
3.65599e-10
4.87939e-06
1.30986e-10
4.87943e-06
4.13501e-10
4.87924e-06
1.72726e-10
4.87929e-06
4.27547e-10
4.8791e-06
1.77426e-10
4.87915e-06
4.07909e-10
4.87897e-06
1.53694e-10
4.87903e-06
3.6912e-10
4.87887e-06
1.1974e-10
4.87892e-06
3.32838e-10
4.87877e-06
9.73968e-11
4.87883e-06
3.20963e-10
4.87867e-06
1.03751e-10
4.87872e-06
3.38465e-10
4.87856e-06
1.36507e-10
4.87859e-06
3.76822e-10
4.87842e-06
1.84281e-10
4.87844e-06
4.20098e-10
4.87826e-06
2.27299e-10
4.87828e-06
4.47693e-10
4.8781e-06
2.4778e-10
4.87811e-06
4.49076e-10
4.87793e-06
2.43518e-10
4.87795e-06
4.32156e-10
4.87778e-06
2.26408e-10
4.87781e-06
4.10206e-10
4.87764e-06
2.11572e-10
4.87766e-06
3.9995e-10
4.8775e-06
2.13976e-10
4.87752e-06
4.10151e-10
4.87735e-06
2.35159e-10
4.87736e-06
4.3633e-10
4.87718e-06
2.69515e-10
4.87718e-06
4.69103e-10
4.877e-06
3.03703e-10
4.87699e-06
4.93728e-10
4.87681e-06
3.2436e-10
4.8768e-06
5.02179e-10
4.87661e-06
3.29254e-10
4.8766e-06
4.98501e-10
4.87643e-06
3.25214e-10
4.87642e-06
4.90773e-10
4.87624e-06
3.22039e-10
4.87623e-06
4.9006e-10
4.87605e-06
3.29395e-10
4.87604e-06
5.01935e-10
4.87585e-06
3.49055e-10
4.87583e-06
5.24293e-10
4.87564e-06
3.77068e-10
4.87561e-06
5.508e-10
4.87542e-06
4.04805e-10
4.87539e-06
5.72531e-10
4.87519e-06
4.2457e-10
4.87515e-06
5.85269e-10
4.87496e-06
4.35528e-10
4.87492e-06
5.91165e-10
4.87472e-06
4.41791e-10
4.87468e-06
5.95598e-10
4.87448e-06
4.49602e-10
4.87444e-06
6.04738e-10
4.87424e-06
4.63984e-10
4.87419e-06
6.21491e-10
4.87399e-06
4.86046e-10
4.87393e-06
6.44977e-10
4.87372e-06
5.13094e-10
4.87366e-06
6.70874e-10
4.87345e-06
5.39927e-10
4.87338e-06
6.94244e-10
4.87316e-06
5.62611e-10
4.87309e-06
7.13019e-10
4.87287e-06
5.80922e-10
4.87279e-06
7.28814e-10
4.87257e-06
5.97719e-10
4.87249e-06
7.45186e-10
4.87226e-06
6.16765e-10
4.87217e-06
7.65483e-10
4.87194e-06
6.40761e-10
4.87185e-06
7.91229e-10
4.87162e-06
6.70038e-10
4.87152e-06
8.21489e-10
4.87127e-06
7.02648e-10
4.87117e-06
8.5373e-10
4.87092e-06
7.3587e-10
4.8708e-06
8.85616e-10
4.87055e-06
7.68026e-10
4.87043e-06
9.16475e-10
4.87017e-06
7.9945e-10
4.87004e-06
9.47579e-10
4.86977e-06
8.32073e-10
4.86964e-06
9.8111e-10
4.86936e-06
8.6809e-10
4.86922e-06
1.01893e-09
4.86894e-06
9.08885e-10
4.86879e-06
1.06177e-09
4.8685e-06
9.5453e-10
4.86833e-06
1.10917e-09
4.86803e-06
1.00419e-09
4.86786e-06
1.16017e-09
4.86754e-06
1.05697e-09
4.86736e-06
1.2142e-09
4.86704e-06
1.11272e-09
4.86684e-06
1.27162e-09
4.8665e-06
1.17239e-09
4.86629e-06
1.33391e-09
4.86594e-06
1.23783e-09
4.86571e-06
1.40317e-09
4.86535e-06
1.31125e-09
4.8651e-06
1.48155e-09
4.86472e-06
1.39469e-09
4.86445e-06
1.57104e-09
4.86405e-06
1.49019e-09
4.86376e-06
1.67394e-09
4.86333e-06
1.60051e-09
4.86301e-06
1.79378e-09
4.86255e-06
1.72997e-09
4.86221e-06
1.93563e-09
4.86171e-06
1.88407e-09
4.86133e-06
2.10508e-09
4.8608e-06
2.06828e-09
4.86039e-06
2.30727e-09
4.85983e-06
2.28768e-09
4.85941e-06
2.54703e-09
4.85883e-06
2.54702e-09
4.8584e-06
2.82842e-09
4.85783e-06
2.84934e-09
4.8574e-06
3.15229e-09
4.85685e-06
3.19169e-09
4.85648e-06
3.50636e-09
4.85602e-06
3.51868e-09
4.85564e-06
3.84831e-09
4.03587e-09
4.85515e-06
5.27078e-06
2.87524e-10
5.27057e-06
-3.53755e-11
5.27066e-06
3.40508e-10
5.27044e-06
-3.24335e-11
5.27055e-06
3.01261e-10
5.27038e-06
-6.72925e-11
5.27051e-06
2.75235e-10
5.27036e-06
-7.61959e-11
5.27048e-06
2.624e-10
5.27033e-06
-9.33715e-11
5.27046e-06
2.19721e-10
5.27032e-06
-1.36687e-10
5.27047e-06
1.43518e-10
5.27036e-06
-2.1417e-10
5.27052e-06
4.97479e-11
5.27043e-06
-3.02809e-10
5.27061e-06
-4.67253e-11
5.27054e-06
-3.78913e-10
5.27072e-06
-1.19128e-10
5.27065e-06
-4.13864e-10
5.27083e-06
-1.40194e-10
5.27075e-06
-3.95335e-10
5.27091e-06
-1.03042e-10
5.27082e-06
-3.17434e-10
5.27095e-06
-1.12616e-11
5.27083e-06
-1.92545e-10
5.27093e-06
1.25858e-10
5.27079e-06
-4.56292e-11
5.27085e-06
2.70285e-10
5.27068e-06
9.7278e-11
5.27072e-06
3.84938e-10
5.27054e-06
1.93876e-10
5.27057e-06
4.41937e-10
5.2704e-06
2.25091e-10
5.27043e-06
4.2989e-10
5.27028e-06
1.88e-10
5.27033e-06
3.58192e-10
5.2702e-06
1.0214e-10
5.27027e-06
2.51242e-10
5.27016e-06
1.21168e-13
5.27025e-06
1.47987e-10
5.27015e-06
-8.77655e-11
5.27025e-06
8.4565e-11
5.27016e-06
-1.17011e-10
5.27024e-06
8.19193e-11
5.27015e-06
-8.31499e-11
5.27021e-06
1.41957e-10
5.2701e-06
-8.07994e-14
5.27014e-06
2.42264e-10
5.27e-06
1.15935e-10
5.27002e-06
3.44418e-10
5.26987e-06
2.12358e-10
5.26989e-06
4.12422e-10
5.26974e-06
2.59692e-10
5.26975e-06
4.23059e-10
5.26961e-06
2.48877e-10
5.26962e-06
3.81081e-10
5.2695e-06
1.93607e-10
5.26953e-06
3.08276e-10
5.26942e-06
1.23554e-10
5.26946e-06
2.38926e-10
5.26936e-06
7.35527e-11
5.2694e-06
2.07902e-10
5.2693e-06
7.05962e-11
5.26933e-06
2.26915e-10
5.26921e-06
1.16509e-10
5.26923e-06
2.87049e-10
5.2691e-06
1.93707e-10
5.26911e-06
3.633e-10
5.26897e-06
2.7018e-10
5.26896e-06
4.20793e-10
5.26882e-06
3.13797e-10
5.26881e-06
4.38031e-10
5.26867e-06
3.14463e-10
5.26866e-06
4.15699e-10
5.26854e-06
2.80981e-10
5.26854e-06
3.69665e-10
5.26842e-06
2.36526e-10
5.26842e-06
3.2824e-10
5.26831e-06
2.10464e-10
5.26831e-06
3.17985e-10
5.2682e-06
2.19836e-10
5.26819e-06
3.42226e-10
5.26807e-06
2.6139e-10
5.26805e-06
3.92362e-10
5.26792e-06
3.19155e-10
5.26789e-06
4.45744e-10
5.26775e-06
3.6762e-10
5.26772e-06
4.7841e-10
5.26758e-06
3.88297e-10
5.26755e-06
4.82122e-10
5.26741e-06
3.80944e-10
5.26738e-06
4.62659e-10
5.26725e-06
3.57781e-10
5.26722e-06
4.37573e-10
5.26709e-06
3.39442e-10
5.26707e-06
4.28027e-10
5.26694e-06
3.43037e-10
5.2669e-06
4.42042e-10
5.26677e-06
3.69488e-10
5.26673e-06
4.7614e-10
5.26659e-06
4.10865e-10
5.26654e-06
5.17064e-10
5.26639e-06
4.50389e-10
5.26634e-06
5.47313e-10
5.26619e-06
4.73234e-10
5.26614e-06
5.59121e-10
5.26599e-06
4.77884e-10
5.26593e-06
5.55621e-10
5.26578e-06
4.71576e-10
5.26573e-06
5.475e-10
5.26558e-06
4.67512e-10
5.26552e-06
5.48205e-10
5.26538e-06
4.76617e-10
5.26531e-06
5.63843e-10
5.26516e-06
5.00557e-10
5.26509e-06
5.92568e-10
5.26494e-06
5.34164e-10
5.26486e-06
6.25748e-10
5.2647e-06
5.66757e-10
5.26462e-06
6.52817e-10
5.26445e-06
5.89701e-10
5.26437e-06
6.69259e-10
5.2642e-06
6.02218e-10
5.26412e-06
6.77223e-10
5.26395e-06
6.09215e-10
5.26386e-06
6.83513e-10
5.26369e-06
6.18464e-10
5.2636e-06
6.95527e-10
5.26343e-06
6.35792e-10
5.26334e-06
7.16961e-10
5.26316e-06
6.62618e-10
5.26306e-06
7.46567e-10
5.26288e-06
6.95238e-10
5.26277e-06
7.78799e-10
5.26258e-06
7.27295e-10
5.26247e-06
8.0778e-10
5.26227e-06
7.5425e-10
5.26216e-06
8.312e-10
5.26196e-06
7.75995e-10
5.26184e-06
8.5096e-10
5.26164e-06
7.96013e-10
5.26151e-06
8.71362e-10
5.26131e-06
8.18932e-10
5.26118e-06
8.96618e-10
5.26097e-06
8.48024e-10
5.26084e-06
9.28602e-10
5.26062e-06
8.83561e-10
5.26048e-06
9.66029e-10
5.26026e-06
9.23003e-10
5.26011e-06
1.00564e-09
5.25988e-06
9.62952e-10
5.25972e-06
1.04454e-09
5.25949e-06
1.00146e-09
5.25932e-06
1.08203e-09
5.25908e-06
1.03906e-09
5.25891e-06
1.11975e-09
5.25866e-06
1.07819e-09
5.25848e-06
1.16046e-09
5.25823e-06
1.12158e-09
5.25804e-06
1.20651e-09
5.25778e-06
1.17091e-09
5.25758e-06
1.25875e-09
5.25731e-06
1.22619e-09
5.25711e-06
1.31648e-09
5.25682e-06
1.28629e-09
5.25661e-06
1.37842e-09
5.25631e-06
1.35003e-09
5.25608e-06
1.44383e-09
5.25578e-06
1.41732e-09
5.25554e-06
1.5133e-09
5.25522e-06
1.4894e-09
5.25496e-06
1.5887e-09
5.25463e-06
1.56859e-09
5.25436e-06
1.67256e-09
5.25402e-06
1.6575e-09
5.25373e-06
1.76747e-09
5.25337e-06
1.75859e-09
5.25306e-06
1.87575e-09
5.25268e-06
1.87412e-09
5.25235e-06
1.9997e-09
5.25195e-06
2.00645e-09
5.2516e-06
2.14179e-09
5.25117e-06
2.15816e-09
5.2508e-06
2.30465e-09
5.25035e-06
2.33197e-09
5.24997e-06
2.49108e-09
5.24951e-06
2.53079e-09
5.24911e-06
2.704e-09
5.24864e-06
2.75752e-09
5.24824e-06
2.94604e-09
5.24777e-06
3.01419e-09
5.24738e-06
3.21811e-09
5.24693e-06
3.29996e-09
5.24657e-06
3.51617e-09
5.24616e-06
3.60278e-09
5.24586e-06
3.80508e-09
5.24547e-06
3.90763e-09
5.24516e-06
4.15647e-09
4.37548e-09
5.24482e-06
5.69156e-06
1.89359e-10
5.69145e-06
7.51325e-11
5.69148e-06
3.07123e-10
5.69135e-06
1.02472e-10
5.69137e-06
2.73648e-10
5.69124e-06
6.87445e-11
5.69128e-06
2.30006e-10
5.69117e-06
3.44286e-11
5.69124e-06
1.97872e-10
5.69115e-06
-3.40079e-12
5.69122e-06
1.44193e-10
5.69115e-06
-6.39013e-11
5.69124e-06
5.50972e-11
5.69119e-06
-1.61769e-10
5.69129e-06
-5.78519e-11
5.69126e-06
-2.70419e-10
5.69138e-06
-1.68135e-10
5.69136e-06
-3.60358e-10
5.69149e-06
-2.4399e-10
5.69147e-06
-3.98228e-10
5.69159e-06
-2.58044e-10
5.69157e-06
-3.72639e-10
5.69167e-06
-2.02781e-10
5.69163e-06
-2.7702e-10
5.6917e-06
-8.18768e-11
5.69163e-06
-1.25206e-10
5.69167e-06
8.55409e-11
5.69157e-06
5.328e-11
5.69158e-06
2.59468e-10
5.69146e-06
2.17345e-10
5.69146e-06
3.92044e-10
5.69133e-06
3.22342e-10
5.69131e-06
4.56449e-10
5.69119e-06
3.49664e-10
5.69118e-06
4.3992e-10
5.69107e-06
2.97934e-10
5.69107e-06
3.5279e-10
5.69099e-06
1.8915e-10
5.69101e-06
2.27809e-10
5.69094e-06
6.50986e-11
5.69098e-06
1.08803e-10
5.69093e-06
-3.36311e-11
5.69097e-06
3.93737e-11
5.69092e-06
-6.43383e-11
5.69096e-06
4.36591e-11
5.6909e-06
-2.19413e-11
5.69092e-06
1.20576e-10
5.69084e-06
8.49964e-11
5.69084e-06
2.42581e-10
5.69073e-06
2.16929e-10
5.69072e-06
3.63189e-10
5.6906e-06
3.23153e-10
5.69058e-06
4.39147e-10
5.69047e-06
3.72078e-10
5.69044e-06
4.5135e-10
5.69033e-06
3.54591e-10
5.69031e-06
4.01219e-10
5.69022e-06
2.85927e-10
5.69021e-06
3.16324e-10
5.69013e-06
2.02247e-10
5.69013e-06
2.38748e-10
5.69006e-06
1.4703e-10
5.69006e-06
2.06987e-10
5.68998e-06
1.46196e-10
5.68998e-06
2.33226e-10
5.68989e-06
2.02697e-10
5.68987e-06
3.08295e-10
5.68977e-06
2.93478e-10
5.68974e-06
3.98396e-10
5.68963e-06
3.78614e-10
5.68958e-06
4.63564e-10
5.68947e-06
4.25212e-10
5.68943e-06
4.83881e-10
5.68932e-06
4.23072e-10
5.68928e-06
4.57505e-10
5.68918e-06
3.81673e-10
5.68914e-06
4.04739e-10
5.68905e-06
3.29683e-10
5.68902e-06
3.5978e-10
5.68893e-06
3.01621e-10
5.68889e-06
3.50037e-10
5.6888e-06
3.1357e-10
5.68876e-06
3.81459e-10
5.68866e-06
3.63778e-10
5.68861e-06
4.42474e-10
5.6885e-06
4.30612e-10
5.68844e-06
5.04346e-10
5.68832e-06
4.83701e-10
5.68826e-06
5.42182e-10
5.68814e-06
5.06267e-10
5.68807e-06
5.47073e-10
5.68796e-06
4.96574e-10
5.6879e-06
5.25108e-10
5.68779e-06
4.69371e-10
5.68772e-06
4.97917e-10
5.68761e-06
4.49513e-10
5.68755e-06
4.88713e-10
5.68744e-06
4.54017e-10
5.68738e-06
5.06672e-10
5.68726e-06
4.85866e-10
5.68719e-06
5.48214e-10
5.68707e-06
5.34006e-10
5.68699e-06
5.96094e-10
5.68686e-06
5.78335e-10
5.68678e-06
6.31643e-10
5.68664e-06
6.04483e-10
5.68656e-06
6.46487e-10
5.68643e-06
6.09679e-10
5.68634e-06
6.43237e-10
5.68621e-06
6.02547e-10
5.68612e-06
6.35331e-10
5.68599e-06
5.98677e-10
5.6859e-06
6.37442e-10
5.68577e-06
6.09537e-10
5.68567e-06
6.56876e-10
5.68553e-06
6.38083e-10
5.68544e-06
6.91569e-10
5.68529e-06
6.77231e-10
5.68519e-06
7.30693e-10
5.68504e-06
7.14567e-10
5.68493e-06
7.62896e-10
5.68478e-06
7.41389e-10
5.68466e-06
7.83043e-10
5.68451e-06
7.56261e-10
5.68439e-06
7.93295e-10
5.68424e-06
7.64848e-10
5.68412e-06
8.01684e-10
5.68396e-06
7.7596e-10
5.68384e-06
8.16588e-10
5.68368e-06
7.96678e-10
5.68356e-06
8.42743e-10
5.68339e-06
8.28576e-10
5.68326e-06
8.78307e-10
5.68309e-06
8.66891e-10
5.68295e-06
9.16626e-10
5.68277e-06
9.0432e-10
5.68263e-06
9.51128e-10
5.68245e-06
9.35951e-10
5.6823e-06
9.79229e-10
5.68211e-06
9.61673e-10
5.68196e-06
1.00304e-09
5.68177e-06
9.8542e-10
5.68161e-06
1.02763e-09
5.68142e-06
1.01265e-09
5.68126e-06
1.058e-09
5.68106e-06
1.04719e-09
5.68089e-06
1.09625e-09
5.68069e-06
1.08918e-09
5.68051e-06
1.14071e-09
5.6803e-06
1.13553e-09
5.68012e-06
1.1875e-09
5.6799e-06
1.18231e-09
5.67971e-06
1.23335e-09
5.67948e-06
1.22737e-09
5.67929e-06
1.27751e-09
5.67906e-06
1.27142e-09
5.67885e-06
1.32195e-09
5.67861e-06
1.31731e-09
5.67841e-06
1.36994e-09
5.67816e-06
1.36825e-09
5.67794e-06
1.4242e-09
5.67769e-06
1.42616e-09
5.67746e-06
1.48563e-09
5.67719e-06
1.49093e-09
5.67696e-06
1.55334e-09
5.67668e-06
1.56115e-09
5.67643e-06
1.62574e-09
5.67615e-06
1.63544e-09
5.67589e-06
1.70199e-09
5.6756e-06
1.71371e-09
5.67533e-06
1.78282e-09
5.67502e-06
1.79746e-09
5.67474e-06
1.8704e-09
5.67441e-06
1.88934e-09
5.67412e-06
1.96761e-09
5.67379e-06
1.99221e-09
5.67348e-06
2.0771e-09
5.67313e-06
2.10841e-09
5.6728e-06
2.20084e-09
5.67244e-06
2.23949e-09
5.67209e-06
2.34002e-09
5.67171e-06
2.38644e-09
5.67136e-06
2.49553e-09
5.67097e-06
2.55016e-09
5.67061e-06
2.66841e-09
5.67021e-06
2.73191e-09
5.66984e-06
2.86014e-09
5.66943e-06
2.93334e-09
5.66907e-06
3.07236e-09
5.66867e-06
3.15583e-09
5.66831e-06
3.30587e-09
5.66792e-06
3.39923e-09
5.66758e-06
3.55892e-09
5.66722e-06
3.65885e-09
5.66692e-06
3.81728e-09
5.66661e-06
3.91222e-09
5.66633e-06
4.08781e-09
5.66603e-06
4.20834e-09
5.66579e-06
4.39991e-09
4.61685e-09
5.66554e-06
6.14593e-06
1.26184e-10
6.14589e-06
1.18003e-10
6.14592e-06
2.7846e-10
6.14583e-06
1.92767e-10
6.14582e-06
2.86196e-10
6.14572e-06
1.6999e-10
6.1457e-06
2.43258e-10
6.14561e-06
1.23503e-10
6.14563e-06
1.84717e-10
6.14556e-06
6.02493e-11
6.1456e-06
1.06945e-10
6.14556e-06
-2.73269e-11
6.14562e-06
1.05127e-12
6.1456e-06