/*--------------------------------*- C++ -*----------------------------------*\
| =========                 |                                                 |
| \\      /  F ield         | OpenFOAM: The Open Source CFD Toolbox           |
|  \\    /   O peration     | Version:  v1912                                 |
|   \\  /    A nd           | Website:  www.openfoam.com                      |
|    \\/     M anipulation  |                                                 |
\*---------------------------------------------------------------------------*/
FoamFile
{
    version     2.0;
    format      ascii;
    class       volVectorField;
    location    "0.5";
    object      U;
}
// * * * * * * * * * * * * * * * * * * * * * * * * * * * * * * * * * * * * * //

dimensions      [0 1 -1 0 0 0 0];


internalField   nonuniform List<vector> 
12000
(
(0.999438 8.66837e-05 0)
(1.00058 -9.35971e-05 0)
(0.999456 8.563e-05 0)
(1.00058 -9.09945e-05 0)
(0.999456 8.7297e-05 0)
(1.00057 -8.87937e-05 0)
(0.999442 8.75257e-05 0)
(1.00055 -8.79026e-05 0)
(0.999422 8.68933e-05 0)
(1.00053 -8.74154e-05 0)
(0.999402 8.6081e-05 0)
(1.00051 -8.70832e-05 0)
(0.999388 8.51256e-05 0)
(1.0005 -8.69512e-05 0)
(0.999383 8.39597e-05 0)
(1.0005 -8.70537e-05 0)
(0.999387 8.26236e-05 0)
(1.00051 -8.72706e-05 0)
(0.999401 8.13099e-05 0)
(1.00052 -8.73561e-05 0)
(0.999423 8.02726e-05 0)
(1.00055 -8.70893e-05 0)
(0.999451 7.96135e-05 0)
(1.00058 -8.64646e-05 0)
(0.999478 7.94028e-05 0)
(1.0006 -8.53922e-05 0)
(0.9995 7.97008e-05 0)
(1.00062 -8.38478e-05 0)
(0.99951 8.0459e-05 0)
(1.00062 -8.20171e-05 0)
(0.999503 8.13377e-05 0)
(1.0006 -8.03121e-05 0)
(0.999478 8.1929e-05 0)
(1.00057 -7.90497e-05 0)
(0.999439 8.19763e-05 0)
(1.00052 -7.83645e-05 0)
(0.999392 8.159e-05 0)
(1.00048 -7.79879e-05 0)
(0.999348 8.09603e-05 0)
(1.00044 -7.7871e-05 0)
(0.999318 8.01385e-05 0)
(1.00042 -7.7893e-05 0)
(0.999307 7.93237e-05 0)
(1.00042 -7.78022e-05 0)
(0.999316 7.87556e-05 0)
(1.00044 -7.73467e-05 0)
(0.999336 7.86504e-05 0)
(1.00046 -7.63744e-05 0)
(0.999357 7.90947e-05 0)
(1.00048 -7.49377e-05 0)
(0.999364 7.9904e-05 0)
(1.00047 -7.3354e-05 0)
(0.999349 8.06821e-05 0)
(1.00045 -7.20587e-05 0)
(0.999312 8.09708e-05 0)
(1.0004 -7.13768e-05 0)
(0.999258 8.07791e-05 0)
(1.00035 -7.09892e-05 0)
(0.999204 8.04435e-05 0)
(1.0003 -7.0739e-05 0)
(0.999165 8.00507e-05 0)
(1.00027 -7.05627e-05 0)
(0.999148 7.97008e-05 0)
(1.00027 -7.02869e-05 0)
(0.999152 7.95916e-05 0)
(1.00028 -6.9623e-05 0)
(0.999166 8.00174e-05 0)
(1.0003 -6.84744e-05 0)
(0.999173 8.08676e-05 0)
(1.0003 -6.71081e-05 0)
(0.999159 8.17856e-05 0)
(1.00028 -6.59365e-05 0)
(0.999121 8.23264e-05 0)
(1.00023 -6.52748e-05 0)
(0.999064 8.2453e-05 0)
(1.00018 -6.49253e-05 0)
(0.999005 8.24257e-05 0)
(1.00013 -6.46848e-05 0)
(0.99896 8.2376e-05 0)
(1.0001 -6.44675e-05 0)
(0.998938 8.24118e-05 0)
(1.00009 -6.40937e-05 0)
(0.998934 8.27829e-05 0)
(1.0001 -6.32989e-05 0)
(0.998936 8.36117e-05 0)
(1.0001 -6.21507e-05 0)
(0.998926 8.46875e-05 0)
(1.00009 -6.09712e-05 0)
(0.998895 8.56461e-05 0)
(1.00005 -6.0086e-05 0)
(0.998843 8.62841e-05 0)
(0.999995 -5.95497e-05 0)
(0.99878 8.66673e-05 0)
(0.99994 -5.92169e-05 0)
(0.998723 8.6987e-05 0)
(0.999898 -5.89018e-05 0)
(0.998683 8.74056e-05 0)
(0.999876 -5.84498e-05 0)
(0.998662 8.80804e-05 0)
(0.999869 -5.77179e-05 0)
(0.99865 8.9098e-05 0)
(0.999863 -5.6704e-05 0)
(0.998631 9.03576e-05 0)
(0.999845 -5.55997e-05 0)
(0.998595 9.16306e-05 0)
(0.999808 -5.46233e-05 0)
(0.998541 9.27491e-05 0)
(0.999756 -5.38716e-05 0)
(0.998475 9.37015e-05 0)
(0.9997 -5.32831e-05 0)
(0.998412 9.46099e-05 0)
(0.999653 -5.2709e-05 0)
(0.998363 9.56258e-05 0)
(0.999622 -5.2011e-05 0)
(0.998327 9.68688e-05 0)
(0.999602 -5.10995e-05 0)
(0.998298 9.83819e-05 0)
(0.999583 -4.99848e-05 0)
(0.998264 0.0001001 0)
(0.999555 -4.87811e-05 0)
(0.998216 0.000101887 0)
(0.999512 -4.76246e-05 0)
(0.998153 0.000103635 0)
(0.999456 -4.65783e-05 0)
(0.998082 0.000105338 0)
(0.999399 -4.56025e-05 0)
(0.998013 0.000107077 0)
(0.999348 -4.45948e-05 0)
(0.997953 0.000108962 0)
(0.999308 -4.34562e-05 0)
(0.997903 0.000111075 0)
(0.999275 -4.21337e-05 0)
(0.997855 0.000113435 0)
(0.999242 -4.06393e-05 0)
(0.997801 0.000116004 0)
(0.999199 -3.90382e-05 0)
(0.997736 0.000118708 0)
(0.999145 -3.74026e-05 0)
(0.99766 0.000121494 0)
(0.999084 -3.57589e-05 0)
(0.997578 0.000124375 0)
(0.999021 -3.40682e-05 0)
(0.997498 0.000127417 0)
(0.998963 -3.22513e-05 0)
(0.997423 0.000130706 0)
(0.998911 -3.0233e-05 0)
(0.997353 0.000134304 0)
(0.998862 -2.79727e-05 0)
(0.997281 0.000138232 0)
(0.99881 -2.54714e-05 0)
(0.997202 0.000142476 0)
(0.99875 -2.27635e-05 0)
(0.997114 0.000146996 0)
(0.998681 -1.98939e-05 0)
(0.997018 0.000151756 0)
(0.998607 -1.69076e-05 0)
(0.996917 0.000156722 0)
(0.998532 -1.37933e-05 0)
(0.996816 0.000161957 0)
(0.998459 -1.04719e-05 0)
(0.996716 0.000167551 0)
(0.998387 -6.86079e-06 0)
(0.996615 0.000173579 0)
(0.998315 -2.90719e-06 0)
(0.996509 0.000180078 0)
(0.998236 1.39876e-06 0)
(0.996396 0.000187045 0)
(0.998151 6.00751e-06 0)
(0.996272 0.000194443 0)
(0.998057 1.09566e-05 0)
(0.996141 0.000202294 0)
(0.997957 1.62074e-05 0)
(0.996002 0.000210647 0)
(0.997852 2.1885e-05 0)
(0.995858 0.000219645 0)
(0.997744 2.8133e-05 0)
(0.995707 0.000229451 0)
(0.99763 3.51104e-05 0)
(0.995548 0.000240235 0)
(0.997507 4.2985e-05 0)
(0.995376 0.000252183 0)
(0.997373 5.1945e-05 0)
(0.995189 0.000265512 0)
(0.997223 6.22278e-05 0)
(0.994984 0.000280513 0)
(0.997056 7.41718e-05 0)
(0.994757 0.000297622 0)
(0.996869 8.83306e-05 0)
(0.994507 0.000317596 0)
(0.996658 0.000105725 0)
(0.994225 0.000341891 0)
(0.996412 0.000128457 0)
(0.9939 0.000373682 0)
(0.996119 0.000161364 0)
(0.993516 0.000420428 0)
(0.995758 0.000215667 0)
(0.993047 0.000498615 0)
(0.995303 0.000314487 0)
(0.99247 0.00063931 0)
(0.994735 0.000497093 0)
(0.999754 8.32343e-05 0)
(1.00026 -9.72753e-05 0)
(0.999779 8.30202e-05 0)
(1.00026 -9.15638e-05 0)
(0.999782 8.86358e-05 0)
(1.00025 -8.71166e-05 0)
(0.999771 9.04845e-05 0)
(1.00022 -8.61764e-05 0)
(0.999754 9.00185e-05 0)
(1.0002 -8.63846e-05 0)
(0.999738 8.89375e-05 0)
(1.00018 -8.71233e-05 0)
(0.999727 8.72664e-05 0)
(1.00016 -8.85763e-05 0)
(0.999726 8.48573e-05 0)
(1.00015 -9.07163e-05 0)
(0.999733 8.19682e-05 0)
(1.00016 -9.30424e-05 0)
(0.999751 7.92975e-05 0)
(1.00017 -9.47663e-05 0)
(0.999777 7.76289e-05 0)
(1.00019 -9.52393e-05 0)
(0.999809 7.73712e-05 0)
(1.00022 -9.42387e-05 0)
(0.999841 7.8735e-05 0)
(1.00024 -9.15984e-05 0)
(0.999867 8.17301e-05 0)
(1.00025 -8.75342e-05 0)
(0.999881 8.59002e-05 0)
(1.00025 -8.28063e-05 0)
(0.999878 9.01446e-05 0)
(1.00023 -7.87062e-05 0)
(0.999857 9.3242e-05 0)
(1.00019 -7.62192e-05 0)
(0.999821 9.44321e-05 0)
(1.00014 -7.57749e-05 0)
(0.999779 9.37691e-05 0)
(1.00009 -7.68782e-05 0)
(0.999739 9.184e-05 0)
(1.00005 -7.90292e-05 0)
(0.999713 8.92639e-05 0)
(1.00002 -8.13687e-05 0)
(0.999707 8.70431e-05 0)
(1.00002 -8.288e-05 0)
(0.99972 8.60849e-05 0)
(1.00003 -8.28174e-05 0)
(0.999746 8.69331e-05 0)
(1.00005 -8.081e-05 0)
(0.999771 8.96988e-05 0)
(1.00006 -7.71856e-05 0)
(0.999783 9.35788e-05 0)
(1.00005 -7.31745e-05 0)
(0.999773 9.70985e-05 0)
(1.00002 -7.02906e-05 0)
(0.99974 9.89108e-05 0)
(0.999971 -6.94678e-05 0)
(0.999692 9.87842e-05 0)
(0.999912 -7.01966e-05 0)
(0.999643 9.75218e-05 0)
(0.99986 -7.17194e-05 0)
(0.999608 9.59158e-05 0)
(0.999828 -7.32037e-05 0)
(0.999597 9.48444e-05 0)
(0.99982 -7.37896e-05 0)
(0.999607 9.50505e-05 0)
(0.999828 -7.28002e-05 0)
(0.999626 9.70767e-05 0)
(0.999838 -7.01134e-05 0)
(0.999638 0.000100478 0)
(0.999834 -6.66892e-05 0)
(0.99963 0.000103953 0)
(0.999805 -6.39782e-05 0)
(0.999597 0.000106125 0)
(0.999754 -6.29726e-05 0)
(0.999546 0.000106631 0)
(0.999692 -6.34235e-05 0)
(0.999493 0.000106119 0)
(0.999637 -6.45218e-05 0)
(0.999454 0.000105406 0)
(0.999601 -6.54702e-05 0)
(0.999437 0.000105297 0)
(0.999588 -6.54722e-05 0)
(0.999439 0.000106549 0)
(0.999589 -6.39409e-05 0)
(0.999447 0.000109332 0)
(0.999586 -6.12042e-05 0)
(0.999444 0.00011288 0)
(0.999566 -5.83443e-05 0)
(0.999419 0.000115987 0)
(0.999523 -5.64631e-05 0)
(0.999372 0.000117873 0)
(0.999463 -5.59269e-05 0)
(0.999316 0.000118591 0)
(0.999401 -5.63017e-05 0)
(0.999266 0.000118837 0)
(0.999353 -5.67839e-05 0)
(0.999233 0.000119425 0)
(0.999324 -5.66159e-05 0)
(0.999219 0.00012102 0)
(0.99931 -5.52966e-05 0)
(0.999213 0.000123843 0)
(0.999298 -5.29429e-05 0)
(0.999202 0.000127441 0)
(0.999273 -5.02737e-05 0)
(0.999173 0.00013098 0)
(0.999228 -4.80956e-05 0)
(0.999126 0.000133816 0)
(0.999168 -4.68142e-05 0)
(0.999068 0.000135829 0)
(0.999105 -4.62471e-05 0)
(0.999013 0.000137459 0)
(0.99905 -4.5808e-05 0)
(0.998971 0.00013935 0)
(0.999011 -4.48846e-05 0)
(0.998944 0.000142021 0)
(0.998983 -4.31073e-05 0)
(0.998924 0.00014563 0)
(0.998956 -4.05596e-05 0)
(0.998899 0.000149876 0)
(0.998919 -3.7716e-05 0)
(0.998859 0.000154208 0)
(0.998867 -3.51164e-05 0)
(0.998805 0.000158186 0)
(0.998802 -3.30402e-05 0)
(0.998743 0.000161732 0)
(0.998735 -3.13666e-05 0)
(0.998684 0.000165145 0)
(0.998675 -2.96885e-05 0)
(0.998634 0.000168879 0)
(0.998625 -2.75701e-05 0)
(0.998594 0.000173296 0)
(0.998582 -2.47739e-05 0)
(0.998557 0.000178486 0)
(0.998538 -2.13701e-05 0)
(0.998515 0.000184247 0)
(0.998485 -1.76644e-05 0)
(0.998461 0.000190233 0)
(0.99842 -1.39907e-05 0)
(0.998396 0.000196186 0)
(0.998346 -1.0495e-05 0)
(0.998326 0.000202101 0)
(0.998271 -7.05097e-06 0)
(0.998258 0.000208223 0)
(0.998201 -3.34942e-06 0)
(0.998197 0.000214885 0)
(0.998137 9.13998e-07 0)
(0.99814 0.000222331 0)
(0.998075 5.88496e-06 0)
(0.998082 0.000230608 0)
(0.998009 1.15067e-05 0)
(0.998018 0.000239584 0)
(0.997935 1.75891e-05 0)
(0.997945 0.000249059 0)
(0.997852 2.39437e-05 0)
(0.997864 0.000258899 0)
(0.997763 3.04917e-05 0)
(0.997779 0.000269113 0)
(0.997673 3.73422e-05 0)
(0.997694 0.000279909 0)
(0.997583 4.47512e-05 0)
(0.997611 0.000291565 0)
(0.997495 5.29667e-05 0)
(0.997529 0.000304288 0)
(0.997405 6.21193e-05 0)
(0.997442 0.000318144 0)
(0.997309 7.21983e-05 0)
(0.997348 0.00033308 0)
(0.997205 8.30879e-05 0)
(0.997245 0.000349007 0)
(0.997092 9.48036e-05 0)
(0.997134 0.000365971 0)
(0.996972 0.000107374 0)
(0.997017 0.000384156 0)
(0.996847 0.000121118 0)
(0.996896 0.000403945 0)
(0.996717 0.000136438 0)
(0.99677 0.000425779 0)
(0.996581 0.000153772 0)
(0.996637 0.000450111 0)
(0.996436 0.000173565 0)
(0.996493 0.00047742 0)
(0.996278 0.000196315 0)
(0.996334 0.000508284 0)
(0.996104 0.000222688 0)
(0.996159 0.000543533 0)
(0.995913 0.000253698 0)
(0.995966 0.00058448 0)
(0.995702 0.000291031 0)
(0.995752 0.000633391 0)
(0.995468 0.000337746 0)
(0.995512 0.000694543 0)
(0.995205 0.00039981 0)
(0.99524 0.000776339 0)
(0.994907 0.000488854 0)
(0.994932 0.000894711 0)
(0.994571 0.000626167 0)
(0.994589 0.00107749 0)
(0.994203 0.000846986 0)
(0.994219 0.00136788 0)
(0.993816 0.00120206 0)
(0.999947 6.54936e-05 0)
(1.00007 -7.11346e-05 0)
(0.999975 6.68097e-05 0)
(1.00007 -6.57137e-05 0)
(0.999977 7.12776e-05 0)
(1.00006 -6.16237e-05 0)
(0.999963 7.26049e-05 0)
(1.00004 -6.06035e-05 0)
(0.999945 7.16844e-05 0)
(1.00001 -6.10437e-05 0)
(0.999927 6.96491e-05 0)
(0.999991 -6.25994e-05 0)
(0.999915 6.6303e-05 0)
(0.999977 -6.56204e-05 0)
(0.999912 6.15157e-05 0)
(0.999972 -6.98398e-05 0)
(0.999918 5.59755e-05 0)
(0.999978 -7.41873e-05 0)
(0.999935 5.10245e-05 0)
(0.999992 -7.72293e-05 0)
(0.99996 4.80837e-05 0)
(1.00002 -7.77465e-05 0)
(0.999991 4.80929e-05 0)
(1.00004 -7.51227e-05 0)
(1.00002 5.13083e-05 0)
(1.00006 -6.93966e-05 0)
(1.00005 5.73951e-05 0)
(1.00008 -6.13467e-05 0)
(1.00006 6.5175e-05 0)
(1.00008 -5.25193e-05 0)
(1.00006 7.26995e-05 0)
(1.00006 -4.511e-05 0)
(1.00003 7.78301e-05 0)
(1.00002 -4.09571e-05 0)
(0.999997 7.91895e-05 0)
(0.99997 -4.08462e-05 0)
(0.999953 7.66878e-05 0)
(0.99992 -4.41559e-05 0)
(0.999912 7.14632e-05 0)
(0.999878 -4.94255e-05 0)
(0.999885 6.52499e-05 0)
(0.999854 -5.46413e-05 0)
(0.999878 6.01899e-05 0)
(0.999851 -5.76594e-05 0)
(0.999892 5.81972e-05 0)
(0.999865 -5.70545e-05 0)
(0.999917 6.01015e-05 0)
(0.999885 -5.2579e-05 0)
(0.999943 6.55287e-05 0)
(0.999898 -4.52986e-05 0)
(0.999955 7.27119e-05 0)
(0.999892 -3.75812e-05 0)
(0.999943 7.89055e-05 0)
(0.999861 -3.21849e-05 0)
(0.999909 8.17219e-05 0)
(0.99981 -3.08155e-05 0)
(0.999859 8.04651e-05 0)
(0.99975 -3.30229e-05 0)
(0.999809 7.64487e-05 0)
(0.999699 -3.70097e-05 0)
(0.999774 7.17611e-05 0)
(0.999668 -4.0536e-05 0)
(0.999762 6.8653e-05 0)
(0.999661 -4.15797e-05 0)
(0.999773 6.87309e-05 0)
(0.999671 -3.91046e-05 0)
(0.999792 7.23412e-05 0)
(0.999682 -3.35299e-05 0)
(0.999805 7.83022e-05 0)
(0.999678 -2.67608e-05 0)
(0.999796 8.41674e-05 0)
(0.999649 -2.14301e-05 0)
(0.999761 8.7527e-05 0)
(0.999597 -1.9393e-05 0)
(0.999709 8.74084e-05 0)
(0.999535 -2.05751e-05 0)
(0.999655 8.48338e-05 0)
(0.99948 -2.32795e-05 0)
(0.999615 8.18128e-05 0)
(0.999445 -2.54069e-05 0)
(0.999599 8.03929e-05 0)
(0.999434 -2.51615e-05 0)
(0.999602 8.19159e-05 0)
(0.999435 -2.18524e-05 0)
(0.99961 8.62903e-05 0)
(0.999434 -1.63555e-05 0)
(0.999607 9.19803e-05 0)
(0.999414 -1.0663e-05 0)
(0.999581 9.67918e-05 0)
(0.99937 -6.84134e-06 0)
(0.999533 9.9121e-05 0)
(0.99931 -5.76995e-06 0)
(0.999475 9.89534e-05 0)
(0.999249 -6.64388e-06 0)
(0.999425 9.76607e-05 0)
(0.999201 -7.76706e-06 0)
(0.999392 9.70588e-05 0)
(0.999173 -7.41614e-06 0)
(0.999378 9.85689e-05 0)
(0.99916 -4.66178e-06 0)
(0.999373 0.000102485 0)
(0.999149 9.40156e-08 0)
(0.999362 0.000107802 0)
(0.999124 5.42255e-06 0)
(0.999333 0.000112886 0)
(0.999079 9.7268e-06 0)
(0.999284 0.000116423 0)
(0.999019 1.21682e-05 0)
(0.999225 0.00011817 0)
(0.998955 1.31114e-05 0)
(0.99917 0.000118984 0)
(0.998901 1.37492e-05 0)
(0.999129 0.000120221 0)
(0.998863 1.54038e-05 0)
(0.999102 0.000122989 0)
(0.998836 1.88115e-05 0)
(0.999082 0.000127556 0)
(0.99881 2.37355e-05 0)
(0.999057 0.000133245 0)
(0.998773 2.91867e-05 0)
(0.999018 0.000138922 0)
(0.99872 3.40658e-05 0)
(0.998963 0.000143692 0)
(0.998656 3.78015e-05 0)
(0.998901 0.000147386 0)
(0.998589 4.06451e-05 0)
(0.998841 0.000150608 0)
(0.998529 4.34392e-05 0)
(0.998792 0.000154308 0)
(0.99848 4.70972e-05 0)
(0.998752 0.000159235 0)
(0.998438 5.20946e-05 0)
(0.998716 0.000165537 0)
(0.998394 5.82454e-05 0)
(0.998674 0.000172744 0)
(0.998341 6.48806e-05 0)
(0.998619 0.000180108 0)
(0.998276 7.12933e-05 0)
(0.998555 0.00018708 0)
(0.998203 7.71761e-05 0)
(0.998485 0.000193636 0)
(0.998128 8.27839e-05 0)
(0.998417 0.00020026 0)
(0.998058 8.87426e-05 0)
(0.998356 0.000207622 0)
(0.997995 9.56623e-05 0)
(0.9983 0.000216192 0)
(0.997934 0.000103808 0)
(0.998243 0.000226014 0)
(0.997869 0.000113013 0)
(0.99818 0.000236756 0)
(0.997795 0.000122846 0)
(0.998107 0.000247979 0)
(0.997712 0.00013293 0)
(0.998026 0.000259433 0)
(0.997623 0.000143191 0)
(0.997942 0.00027124 0)
(0.997533 0.000153909 0)
(0.997858 0.000283801 0)
(0.997445 0.000165551 0)
(0.997777 0.000297596 0)
(0.997358 0.000178538 0)
(0.997695 0.000312941 0)
(0.997269 0.000193052 0)
(0.99761 0.000329889 0)
(0.997174 0.000209028 0)
(0.997517 0.000348305 0)
(0.997071 0.0002263 0)
(0.997415 0.000368061 0)
(0.996959 0.000244824 0)
(0.997306 0.000389227 0)
(0.99684 0.000264797 0)
(0.997192 0.000412157 0)
(0.996716 0.000286703 0)
(0.997073 0.000437441 0)
(0.996589 0.000311193 0)
(0.99695 0.000465763 0)
(0.996456 0.000338949 0)
(0.996821 0.000497806 0)
(0.996314 0.000370648 0)
(0.996681 0.000534281 0)
(0.996161 0.000407062 0)
(0.996528 0.000576085 0)
(0.995992 0.000449274 0)
(0.99636 0.000624589 0)
(0.995809 0.000499033 0)
(0.996176 0.000682062 0)
(0.995608 0.000559266 0)
(0.995975 0.000752302 0)
(0.99539 0.000634867 0)
(0.995757 0.00084159 0)
(0.995154 0.000733755 0)
(0.995523 0.000959711 0)
(0.994902 0.000867667 0)
(0.995274 0.00112029 0)
(0.994639 0.00105179 0)
(0.995017 0.00133951 0)
(0.994371 0.00130251 0)
(0.994762 0.00163297 0)
(0.994111 0.00163364 0)
(1 4.76306e-05 0)
(1.00001 -3.72286e-05 0)
(1.00003 5.14183e-05 0)
(1.00002 -3.53171e-05 0)
(1.00003 5.10724e-05 0)
(1.00001 -3.484e-05 0)
(1.00001 5.03552e-05 0)
(0.999987 -3.46036e-05 0)
(0.999993 4.91025e-05 0)
(0.999963 -3.53306e-05 0)
(0.999974 4.64234e-05 0)
(0.999943 -3.79014e-05 0)
(0.999961 4.15571e-05 0)
(0.999929 -4.28035e-05 0)
(0.999956 3.451e-05 0)
(0.999925 -4.93902e-05 0)
(0.999962 2.65685e-05 0)
(0.999931 -5.58977e-05 0)
(0.999978 1.9796e-05 0)
(0.999947 -6.0165e-05 0)
(1 1.63199e-05 0)
(0.999971 -6.03277e-05 0)
(1.00004 1.75335e-05 0)
(0.999999 -5.55986e-05 0)
(1.00007 2.35781e-05 0)
(1.00002 -4.63986e-05 0)
(1.00009 3.35651e-05 0)
(1.00004 -3.41705e-05 0)
(1.00011 4.55282e-05 0)
(1.00004 -2.13985e-05 0)
(1.0001 5.65445e-05 0)
(1.00002 -1.12168e-05 0)
(1.00008 6.35471e-05 0)
(0.999977 -6.31491e-06 0)
(1.00004 6.45963e-05 0)
(0.999927 -7.57817e-06 0)
(0.999994 5.98302e-05 0)
(0.999875 -1.39889e-05 0)
(0.999952 5.1023e-05 0)
(0.999833 -2.30097e-05 0)
(0.999925 4.13115e-05 0)
(0.99981 -3.12962e-05 0)
(0.99992 3.40288e-05 0)
(0.999808 -3.55558e-05 0)
(0.999935 3.2015e-05 0)
(0.999823 -3.38124e-05 0)
(0.999962 3.61521e-05 0)
(0.999845 -2.6313e-05 0)
(0.999989 4.51789e-05 0)
(0.999858 -1.51314e-05 0)
(1 5.62213e-05 0)
(0.999851 -3.91582e-06 0)
(0.99999 6.5209e-05 0)
(0.999818 3.31062e-06 0)
(0.999953 6.8722e-05 0)
(0.999765 4.3189e-06 0)
(0.999902 6.60663e-05 0)
(0.999704 -1.3125e-07 0)
(0.999852 5.91901e-05 0)
(0.999651 -7.18593e-06 0)
(0.999818 5.15757e-05 0)
(0.99962 -1.30643e-05 0)
(0.999808 4.69407e-05 0)
(0.999615 -1.44471e-05 0)
(0.999821 4.78089e-05 0)
(0.999626 -1.00901e-05 0)
(0.999843 5.40277e-05 0)
(0.999637 -1.35184e-06 0)
(0.999856 6.32812e-05 0)
(0.999632 8.63157e-06 0)
(0.999848 7.18642e-05 0)
(0.999601 1.60239e-05 0)
(0.999812 7.63532e-05 0)
(0.999547 1.83224e-05 0)
(0.999759 7.55642e-05 0)
(0.999482 1.57921e-05 0)
(0.999705 7.1055e-05 0)
(0.999426 1.10082e-05 0)
(0.999667 6.60582e-05 0)
(0.999391 7.45954e-06 0)
(0.999653 6.39214e-05 0)
(0.999381 7.95463e-06 0)
(0.999659 6.64953e-05 0)
(0.999383 1.31251e-05 0)
(0.999669 7.32078e-05 0)
(0.999381 2.13349e-05 0)
(0.999667 8.15619e-05 0)
(0.999359 2.95185e-05 0)
(0.999641 8.83038e-05 0)
(0.999313 3.4692e-05 0)
(0.999593 9.11773e-05 0)
(0.99925 3.57187e-05 0)
(0.999536 9.03011e-05 0)
(0.999187 3.38443e-05 0)
(0.999486 8.77811e-05 0)
(0.999138 3.17381e-05 0)
(0.999456 8.64949e-05 0)
(0.99911 3.21014e-05 0)
(0.999445 8.8563e-05 0)
(0.999098 3.61629e-05 0)
(0.999443 9.41998e-05 0)
(0.999086 4.31413e-05 0)
(0.999433 0.00010178 0)
(0.99906 5.08142e-05 0)
(0.999404 0.0001088 0)
(0.999013 5.67724e-05 0)
(0.999356 0.00011332 0)
(0.99895 5.9854e-05 0)
(0.999298 0.000115101 0)
(0.998884 6.06937e-05 0)
(0.999244 0.000115499 0)
(0.998828 6.11642e-05 0)
(0.999205 0.000116628 0)
(0.998789 6.33058e-05 0)
(0.999181 0.000120142 0)
(0.998762 6.81372e-05 0)
(0.999164 0.000126319 0)
(0.998736 7.51924e-05 0)
(0.999141 0.00013405 0)
(0.998697 8.29164e-05 0)
(0.999102 0.00014158 0)
(0.998642 8.96323e-05 0)
(0.999048 0.000147577 0)
(0.998575 9.45458e-05 0)
(0.998987 0.000151882 0)
(0.998506 9.81222e-05 0)
(0.998929 0.000155476 0)
(0.998445 0.000101692 0)
(0.998883 0.00015983 0)
(0.998395 0.000106634 0)
(0.998846 0.000166031 0)
(0.998353 0.000113596 0)
(0.998812 0.00017422 0)
(0.998308 0.000122216 0)
(0.998772 0.000183608 0)
(0.998253 0.000131427 0)
(0.99872 0.000193033 0)
(0.998186 0.000140159 0)
(0.998657 0.000201692 0)
(0.99811 0.000147998 0)
(0.998589 0.00020961 0)
(0.998034 0.000155384 0)
(0.998524 0.000217556 0)
(0.997963 0.000163281 0)
(0.998465 0.00022654 0)
(0.997898 0.00017259 0)
(0.998412 0.000237229 0)
(0.997836 0.000183662 0)
(0.998359 0.000249632 0)
(0.99777 0.000196187 0)
(0.998298 0.000263199 0)
(0.997695 0.000209486 0)
(0.998228 0.00027725 0)
(0.99761 0.000222995 0)
(0.99815 0.000291439 0)
(0.99752 0.000236641 0)
(0.998069 0.000305976 0)
(0.997428 0.000250876 0)
(0.997989 0.000321486 0)
(0.997339 0.000266404 0)
(0.997911 0.000338661 0)
(0.997251 0.000283812 0)
(0.997834 0.000357923 0)
(0.997161 0.000303323 0)
(0.997753 0.0003793 0)
(0.997065 0.000324803 0)
(0.997665 0.000402566 0)
(0.99696 0.000348005 0)
(0.997568 0.000427537 0)
(0.996847 0.000372874 0)
(0.997464 0.000454337 0)
(0.996727 0.000399725 0)
(0.997355 0.000483481 0)
(0.996604 0.000429246 0)
(0.997243 0.000515783 0)
(0.996477 0.00046232 0)
(0.997128 0.000552161 0)
(0.996345 0.000499856 0)
(0.997007 0.000593507 0)
(0.996206 0.000542741 0)
(0.996877 0.000640746 0)
(0.996055 0.00059199 0)
(0.996736 0.000695075 0)
(0.995892 0.00064907 0)
(0.996582 0.000758345 0)
(0.995716 0.000716323 0)
(0.996417 0.000833504 0)
(0.995528 0.000797394 0)
(0.996241 0.000924978 0)
(0.995331 0.000897509 0)
(0.996058 0.00103877 0)
(0.995127 0.00102333 0)
(0.99587 0.00118202 0)
(0.994918 0.00118225 0)
(0.995681 0.00136212 0)
(0.99471 0.00138131 0)
(0.995495 0.00158538 0)
(0.994507 0.00162577 0)
(0.995319 0.00185564 0)
(0.994315 0.00191766 0)
(1.00001 3.25191e-05 0)
(1 -1.08135e-05 0)
(1.00003 3.97557e-05 0)
(1.00001 -1.06225e-05 0)
(1.00003 3.6028e-05 0)
(0.999996 -1.38257e-05 0)
(1.00002 3.29172e-05 0)
(0.999974 -1.51939e-05 0)
(0.999997 3.11185e-05 0)
(0.99995 -1.65008e-05 0)
(0.999977 2.798e-05 0)
(0.999928 -2.02443e-05 0)
(0.999963 2.17453e-05 0)
(0.999914 -2.72064e-05 0)
(0.999958 1.26735e-05 0)
(0.999909 -3.61783e-05 0)
(0.999964 2.73465e-06 0)
(0.999916 -4.46758e-05 0)
(0.999981 -5.25237e-06 0)
(0.999933 -4.97923e-05 0)
(1.00001 -8.55916e-06 0)
(0.999959 -4.92507e-05 0)
(1.00004 -5.54163e-06 0)
(0.999988 -4.21906e-05 0)
(1.00008 3.88123e-06 0)
(1.00001 -2.93394e-05 0)
(1.0001 1.81899e-05 0)
(1.00003 -1.29625e-05 0)
(1.00012 3.43855e-05 0)
(1.00003 3.32378e-06 0)
(1.00011 4.85344e-05 0)
(1 1.5487e-05 0)
(1.00009 5.68454e-05 0)
(0.999961 2.04192e-05 0)
(1.00005 5.72542e-05 0)
(0.999909 1.7307e-05 0)
(0.999999 5.01148e-05 0)
(0.999855 7.61126e-06 0)
(0.999957 3.79441e-05 0)
(0.999812 -5.13159e-06 0)
(0.999931 2.50953e-05 0)
(0.999789 -1.60027e-05 0)
(0.999928 1.64663e-05 0)
(0.999789 -2.08039e-05 0)
(0.999946 1.52573e-05 0)
(0.999806 -1.74629e-05 0)
(0.999977 2.2186e-05 0)
(0.999829 -6.64856e-06 0)
(1.00001 3.52e-05 0)
(0.999843 8.26502e-06 0)
(1.00002 4.98399e-05 0)
(0.999834 2.22295e-05 0)
(1.00001 6.09201e-05 0)
(0.999798 3.04019e-05 0)
(0.999967 6.46056e-05 0)
(0.999741 3.0513e-05 0)
(0.999915 6.03904e-05 0)
(0.999677 2.36674e-05 0)
(0.999864 5.0861e-05 0)
(0.999624 1.37633e-05 0)
(0.999831 4.08872e-05 0)
(0.999593 6.08091e-06 0)
(0.999824 3.55187e-05 0)
(0.999589 4.87839e-06 0)
(0.999841 3.77228e-05 0)
(0.999602 1.13422e-05 0)
(0.999866 4.68604e-05 0)
(0.999614 2.32241e-05 0)
(0.999881 5.93804e-05 0)
(0.999608 3.60216e-05 0)
(0.999872 7.0283e-05 0)
(0.999573 4.48086e-05 0)
(0.999835 7.54332e-05 0)
(0.999515 4.68556e-05 0)
(0.999781 7.37775e-05 0)
(0.999448 4.27808e-05 0)
(0.999727 6.74848e-05 0)
(0.99939 3.60613e-05 0)
(0.999691 6.09688e-05 0)
(0.999356 3.14865e-05 0)
(0.99968 5.87034e-05 0)
(0.999346 3.25778e-05 0)
(0.99969 6.27793e-05 0)
(0.999349 3.98045e-05 0)
(0.999704 7.21012e-05 0)
(0.999347 5.06866e-05 0)
(0.999703 8.30818e-05 0)
(0.999323 6.10047e-05 0)
(0.999677 9.14635e-05 0)
(0.999273 6.70915e-05 0)
(0.999628 9.46845e-05 0)
(0.999207 6.78097e-05 0)
(0.99957 9.30909e-05 0)
(0.999141 6.48886e-05 0)
(0.999521 8.95785e-05 0)
(0.999091 6.19973e-05 0)
(0.999494 8.80347e-05 0)
(0.999064 6.26486e-05 0)
(0.999487 9.10717e-05 0)
(0.999053 6.82156e-05 0)
(0.999489 9.87175e-05 0)
(0.999041 7.74616e-05 0)
(0.999481 0.000108656 0)
(0.999013 8.73193e-05 0)
(0.999453 0.000117537 0)
(0.998962 9.46809e-05 0)
(0.999404 0.000122972 0)
(0.998896 9.8211e-05 0)
(0.999346 0.000124799 0)
(0.998827 9.88748e-05 0)
(0.999293 0.000124951 0)
(0.998771 9.92759e-05 0)
(0.999257 0.000126294 0)
(0.998732 0.00010209 0)
(0.999237 0.000130909 0)
(0.998706 0.000108522 0)
(0.999223 0.000138999 0)
(0.998679 0.000117804 0)
(0.999202 0.00014897 0)
(0.998639 0.000127768 0)
(0.999165 0.000158439 0)
(0.998581 0.000136204 0)
(0.999111 0.000165713 0)
(0.998511 0.00014218 0)
(0.99905 0.000170716 0)
(0.998439 0.000146437 0)
(0.998995 0.000174867 0)
(0.998377 0.00015083 0)
(0.998951 0.000180155 0)
(0.998327 0.000157174 0)
(0.998918 0.00018796 0)
(0.998285 0.000166237 0)
(0.998887 0.000198352 0)
(0.998239 0.000177413 0)
(0.99885 0.000210177 0)
(0.998183 0.000189205 0)
(0.998799 0.000221851 0)
(0.998113 0.000200205 0)
(0.998737 0.000232365 0)
(0.998035 0.000209947 0)
(0.99867 0.000241848 0)
(0.997956 0.000219106 0)
(0.998608 0.000251391 0)
(0.997884 0.000229005 0)
(0.998553 0.000262345 0)
(0.99782 0.000240819 0)
(0.998504 0.000275543 0)
(0.997757 0.000254937 0)
(0.998455 0.00029091 0)
(0.99769 0.000270868 0)
(0.998397 0.00030765 0)
(0.997613 0.000287668 0)
(0.99833 0.000324848 0)
(0.997526 0.000304607 0)
(0.998254 0.000342082 0)
(0.997434 0.000321638 0)
(0.998176 0.000359685 0)
(0.997341 0.00033941 0)
(0.9981 0.00037852 0)
(0.997251 0.000358871 0)
(0.998028 0.000399492 0)
(0.997163 0.000380767 0)
(0.997956 0.00042311 0)
(0.997073 0.000405333 0)
(0.99788 0.000449352 0)
(0.996976 0.000432344 0)
(0.997797 0.000477884 0)
(0.996871 0.000461459 0)
(0.997705 0.000508464 0)
(0.996757 0.000492618 0)
(0.997607 0.00054127 0)
(0.996638 0.000526256 0)
(0.997505 0.000576987 0)
(0.996515 0.00056326 0)
(0.997401 0.000616644 0)
(0.99639 0.000604731 0)
(0.997295 0.000661357 0)
(0.996261 0.000651755 0)
(0.997185 0.000712173 0)
(0.996126 0.000705356 0)
(0.997068 0.000770144 0)
(0.995981 0.00076668 0)
(0.996941 0.000836604 0)
(0.995826 0.000837336 0)
(0.996805 0.000913523 0)
(0.995662 0.000919712 0)
(0.996663 0.00100374 0)
(0.995491 0.00101708 0)
(0.996516 0.00111089 0)
(0.995318 0.00113335 0)
(0.996369 0.00123905 0)
(0.995144 0.00127259 0)
(0.996225 0.00139214 0)
(0.994973 0.00143841 0)
(0.996085 0.0015733 0)
(0.994806 0.0016334 0)
(0.995953 0.00178447 0)
(0.994648 0.00185872 0)
(0.995833 0.00202595 0)
(0.9945 0.00211384 0)
(1.00001 2.17468e-05 0)
(0.999995 3.86212e-06 0)
(1.00003 3.26922e-05 0)
(0.999998 6.06221e-06 0)
(1.00003 2.96584e-05 0)
(0.999986 1.86745e-06 0)
(1.00001 2.51243e-05 0)
(0.999965 -1.42786e-06 0)
(0.999991 2.1799e-05 0)
(0.99994 -4.44635e-06 0)
(0.999971 1.72948e-05 0)
(0.999918 -9.98691e-06 0)
(0.999955 9.3733e-06 0)
(0.999902 -1.91346e-05 0)
(0.999949 -1.68437e-06 0)
(0.999897 -3.03425e-05 0)
(0.999955 -1.33665e-05 0)
(0.999904 -4.05053e-05 0)
(0.999974 -2.22326e-05 0)
(0.999923 -4.61618e-05 0)
(1 -2.51206e-05 0)
(0.999951 -4.47368e-05 0)
(1.00004 -2.0166e-05 0)
(0.999982 -3.52468e-05 0)
(1.00008 -7.34474e-06 0)
(1.00001 -1.87766e-05 0)
(1.00011 1.1147e-05 0)
(1.00002 1.4948e-06 0)
(1.00012 3.12202e-05 0)
(1.00002 2.0839e-05 0)
(1.00011 4.79686e-05 0)
(0.999995 3.4514e-05 0)
(1.00009 5.71611e-05 0)
(0.99995 3.9237e-05 0)
(1.00004 5.67192e-05 0)
(0.999894 3.4218e-05 0)
(0.999993 4.72206e-05 0)
(0.999838 2.14973e-05 0)
(0.99995 3.21124e-05 0)
(0.999794 5.70849e-06 0)
(0.999925 1.68576e-05 0)
(0.999773 -7.11501e-06 0)
(0.999925 7.34964e-06 0)
(0.999775 -1.20333e-05 0)
(0.999947 7.18623e-06 0)
(0.999796 -6.92044e-06 0)
(0.999982 1.68648e-05 0)
(0.999821 7.03089e-06 0)
(1.00001 3.34336e-05 0)
(0.999835 2.51616e-05 0)
(1.00003 5.10305e-05 0)
(0.999824 4.12101e-05 0)
(1.00001 6.35962e-05 0)
(0.999785 4.99207e-05 0)
(0.999969 6.72127e-05 0)
(0.999723 4.90231e-05 0)
(0.999913 6.14569e-05 0)
(0.999657 4.00247e-05 0)
(0.999861 4.97356e-05 0)
(0.999602 2.79268e-05 0)
(0.99983 3.81386e-05 0)
(0.999574 1.91626e-05 0)
(0.999827 3.26553e-05 0)
(0.999573 1.85132e-05 0)
(0.999848 3.63602e-05 0)
(0.999589 2.70673e-05 0)
(0.999877 4.82342e-05 0)
(0.999602 4.17714e-05 0)
(0.999893 6.35984e-05 0)
(0.999594 5.68922e-05 0)
(0.999883 7.63539e-05 0)
(0.999556 6.67239e-05 0)
(0.999843 8.19362e-05 0)
(0.999493 6.83627e-05 0)
(0.999786 7.9357e-05 0)
(0.999422 6.28071e-05 0)
(0.999731 7.15231e-05 0)
(0.999364 5.45546e-05 0)
(0.999697 6.39655e-05 0)
(0.999331 4.9425e-05 0)
(0.999691 6.19455e-05 0)
(0.999324 5.13837e-05 0)
(0.999705 6.76843e-05 0)
(0.99933 6.07371e-05 0)
(0.999722 7.95499e-05 0)
(0.999328 7.41215e-05 0)
(0.999722 9.29018e-05 0)
(0.999301 8.62954e-05 0)
(0.999694 0.000102668 0)
(0.999247 9.30874e-05 0)
(0.999642 0.000106078 0)
(0.999177 9.33971e-05 0)
(0.999583 0.000103795 0)
(0.999109 8.95821e-05 0)
(0.999536 9.95625e-05 0)
(0.99906 8.62278e-05 0)
(0.999512 9.80907e-05 0)
(0.999035 8.74525e-05 0)
(0.999509 0.000102336 0)
(0.999026 9.4713e-05 0)
(0.999514 0.000112113 0)
(0.999014 0.000106241 0)
(0.999508 0.000124349 0)
(0.998984 0.000118143 0)
(0.999479 0.000134944 0)
(0.998931 0.000126753 0)
(0.999429 0.000141182 0)
(0.998861 0.000130632 0)
(0.999369 0.000143053 0)
(0.99879 0.000131172 0)
(0.999318 0.000143122 0)
(0.998734 0.000131694 0)
(0.999284 0.000144931 0)
(0.998697 0.000135409 0)
(0.999268 0.000150903 0)
(0.998672 0.000143644 0)
(0.999258 0.000161114 0)
(0.998645 0.00015525 0)
(0.999238 0.000173408 0)
(0.998603 0.000167431 0)
(0.999201 0.000184812 0)
(0.998543 0.000177515 0)
(0.999147 0.000193356 0)
(0.99847 0.000184494 0)
(0.999086 0.0001991 0)
(0.998396 0.000189447 0)
(0.999031 0.000203941 0)
(0.998334 0.000194762 0)
(0.99899 0.000210376 0)
(0.998285 0.000202665 0)
(0.998961 0.000220038 0)
(0.998244 0.000213983 0)
(0.998934 0.00023286 0)
(0.998199 0.000227804 0)
(0.998898 0.000247272 0)
(0.998141 0.000242184 0)
(0.998848 0.00026129 0)
(0.998069 0.000255419 0)
(0.998786 0.000273749 0)
(0.997988 0.000267046 0)
(0.998721 0.000284933 0)
(0.997908 0.000278014 0)
(0.998661 0.000296281 0)
(0.997837 0.000290018 0)
(0.99861 0.000309476 0)
(0.997773 0.000304471 0)
(0.998565 0.00032547 0)
(0.997711 0.000321755 0)
(0.998519 0.000344059 0)
(0.997644 0.000341156 0)
(0.998464 0.000364177 0)
(0.997566 0.000361463 0)
(0.998399 0.00038469 0)
(0.997478 0.00038181 0)
(0.998325 0.000405141 0)
(0.997384 0.000402215 0)
(0.99825 0.000426013 0)
(0.997291 0.000423542 0)
(0.998178 0.000448413 0)
(0.997202 0.000446973 0)
(0.998111 0.000473439 0)
(0.997115 0.000473384 0)
(0.998044 0.000501652 0)
(0.997026 0.000502987 0)
(0.997974 0.000532951 0)
(0.996931 0.000535448 0)
(0.997896 0.000566882 0)
(0.996826 0.000570325 0)
(0.997809 0.000603146 0)
(0.996713 0.000607554 0)
(0.997716 0.000641979 0)
(0.996596 0.00064769 0)
(0.997621 0.000684223 0)