/*--------------------------------*- C++ -*----------------------------------*\
| =========                 |                                                 |
| \\      /  F ield         | OpenFOAM: The Open Source CFD Toolbox           |
|  \\    /   O peration     | Version:  v1912                                 |
|   \\  /    A nd           | Website:  www.openfoam.com                      |
|    \\/     M anipulation  |                                                 |
\*---------------------------------------------------------------------------*/
FoamFile
{
    version     2.0;
    format      ascii;
    class       volScalarField;
    location    "0.7";
    object      p;
}
// * * * * * * * * * * * * * * * * * * * * * * * * * * * * * * * * * * * * * //

dimensions      [0 2 -2 0 0 0 0];


internalField   nonuniform List<scalar> 
12000
(
1.99836e-08
-1.21384e-05
-1.93726e-05
-2.17341e-05
-1.9704e-05
-1.45457e-05
-7.56846e-06
-1.393e-07
7.01643e-06
1.35e-05
1.94579e-05
2.51029e-05
3.07023e-05
3.61686e-05
4.12207e-05
4.54237e-05
4.81688e-05
4.90981e-05
4.7867e-05
4.46091e-05
3.94543e-05
3.29724e-05
2.55487e-05
1.78363e-05
1.01315e-05
2.9024e-06
-3.74467e-06
-9.45791e-06
-1.42521e-05
-1.77612e-05
-1.99456e-05
-2.03566e-05
-1.89381e-05
-1.52703e-05
-9.40002e-06
-1.07859e-06
9.41199e-06
2.20498e-05
3.62785e-05
5.18296e-05
6.79221e-05
8.4166e-05
9.97765e-05
0.000114392
0.000127341
0.00013848
0.000147361
0.000154082
0.000158461
0.000160925
0.000161605
0.000161192
0.000160072
0.000159068
0.000158613
0.000159506
0.000162084
0.000166974
0.000174256
0.000184242
0.000196679
0.000211502
0.000228127
0.000246194
0.000264865
0.000283624
0.000301586
0.000318307
0.000333134
0.000345928
0.000356426
0.000364891
0.000371455
0.000376746
0.000381182
0.000385584
0.000390479
0.000396652
0.000404483
0.000414499
0.000426764
0.00044144
0.000458212
0.000476858
0.000496741
0.000517414
0.000538105
0.000558322
0.000577382
0.000595026
0.000610902
0.000625128
0.000637731
0.000649178
0.000659795
0.00067026
0.000681017
0.000692743
0.000705773
0.000720571
0.000737186
0.000755755
0.000775987
0.000797709
0.000820372
0.000843628
0.000866847
0.00088971
0.000911719
0.000932769
0.000952631
0.0009715
0.000989432
0.00100688
0.00102408
0.0010416
0.00105971
0.00107889
0.00109926
0.00112111
0.00114432
0.00116893
0.00119461
0.00122122
0.00124829
0.00127567
0.00130289
0.00132989
0.00135638
0.00138246
0.00140804
0.00143343
0.00145865
0.00148414
0.00150999
0.00153661
0.00156404
0.0015926
0.00162217
0.00165296
0.00168468
0.00171742
0.00175083
0.00178493
0.00181935
0.00185417
0.00188907
0.00192423
0.00195944
0.00199499
0.00203075
0.0020671
0.00210393
0.00214165
0.00218013
0.00221976
0.00226033
0.00230218
0.00234502
0.00238913
0.00243417
0.0024804
0.00252744
0.00257558
0.00262445
0.00267442
0.00272514
0.00277707
0.00282993
0.00288425
0.00293978
0.00299708
0.00305591
0.00311683
0.00317958
0.00324472
0.00331196
0.00338187
0.00345416
0.00352943
0.0036074
0.00368877
0.00377329
0.00386179
0.00395413
0.00405132
0.00415338
0.00426156
0.00437613
0.00449872
0.00462998
0.00477208
0.00492625
0.00509542
0.00528151
0.00548825
0.00571798
0.0059745
0.00625918
0.00657366
2.82303e-06
-1.21114e-05
-2.01594e-05
-2.27684e-05
-2.02384e-05
-1.49285e-05
-7.58351e-06
-1.93766e-07
7.13793e-06
1.34672e-05
1.95559e-05
2.50682e-05
3.08018e-05
3.61666e-05
4.13912e-05
4.54957e-05
4.84154e-05
4.92357e-05
4.81503e-05
4.47568e-05
3.97057e-05
3.30692e-05
2.572e-05
1.78454e-05
1.01846e-05
2.79755e-06
-3.79963e-06
-9.69108e-06
-1.44582e-05
-1.81484e-05
-2.03031e-05
-2.08661e-05
-1.93805e-05
-1.58089e-05
-9.82575e-06
-1.54337e-06
9.09397e-06
2.17383e-05
3.61359e-05
5.16895e-05
6.79218e-05
8.41443e-05
9.98528e-05
0.000114428
0.000127468
0.000138559
0.000147509
0.000154149
0.000158573
0.00016093
0.000161608
0.000161063
0.000159893
0.000158729
0.000158227
0.000158994
0.000161578
0.000166399
0.000173756
0.00018375
0.000196315
0.000211196
0.000227963
0.000246061
0.00026483
0.000283574
0.000301593
0.000318282
0.000333154
0.000345898
0.000356419
0.000364794
0.000371331
0.000376477
0.000380845
0.000385104
0.000389955
0.000396036
0.000403884
0.000413875
0.000426224
0.000440924
0.000457811
0.000476497
0.000496488
0.000517179
0.000537943
0.000558131
0.000577223
0.000594798
0.000610675
0.000624796
0.000637367
0.000648681
0.000659248
0.000669582
0.000680311
0.000691944
0.000704989
0.00071974
0.000736415
0.000754973
0.000775289
0.00079701
0.000819755
0.000842991
0.000866264
0.000889069
0.000911097
0.000932052
0.000951901
0.000970645
0.000988546
0.00100585
0.00102303
0.00104042
0.00105852
0.00107759
0.00109798
0.00111975
0.001143
0.00116756
0.00119328
0.00121983
0.00124694
0.00127423
0.00130147
0.00132835
0.00135482
0.00138076
0.00140631
0.00143152
0.00145671
0.00148202
0.00150783
0.00153428
0.00156168
0.00159007
0.00161963
0.00165025
0.00168196
0.00171453
0.00174791
0.00178182
0.00181619
0.00185078
0.00188561
0.00192051
0.00195561
0.00199085
0.00202648
0.0020625
0.00209919
0.00213659
0.00217496
0.00221428
0.00225476
0.0022963
0.00233903
0.00238281
0.0024277
0.00247353
0.00252038
0.00256807
0.00261672
0.00266619
0.00271667
0.00276809
0.0028207
0.00287448
0.00292972
0.00298642
0.00304488
0.0031051
0.00316738
0.00323169
0.00329832
0.00336725
0.00343875
0.00351283
0.00358981
0.00366973
0.00375299
0.00383972
0.00393042
0.00402536
0.00412517
0.00423025
0.00434144
0.00445929
0.00458475
0.00471843
0.00486112
0.00501307
0.00517449
0.00534473
0.00552295
0.00570731
0.00589601
0.00608675
5.84648e-06
-1.2278e-05
-2.1411e-05
-2.4163e-05
-2.10601e-05
-1.53936e-05
-7.64452e-06
-2.60921e-07
7.19001e-06
1.33937e-05
1.9604e-05
2.50642e-05
3.09777e-05
3.63482e-05
4.17854e-05
4.59021e-05
4.90025e-05
4.97873e-05
4.88036e-05
4.52968e-05
4.02619e-05
3.34276e-05
2.60278e-05
1.79114e-05
1.01757e-05
2.54149e-06
-4.1492e-06
-1.02963e-05
-1.51698e-05
-1.91004e-05
-2.13252e-05
-2.20585e-05
-2.05587e-05
-1.70365e-05
-1.09117e-05
-2.56376e-06
8.32131e-06
2.11131e-05
3.58123e-05
5.15382e-05
6.8061e-05
8.44186e-05
0.000100341
0.000114973
0.000128146
0.000139199
0.000148165
0.000154663
0.000159001
0.000161127
0.000161652
0.00016081
0.000159437
0.000157951
0.000157263
0.000157795
0.000160329
0.000165082
0.00017255
0.000182645
0.000195476
0.000210563
0.000227654
0.000245964
0.000265006
0.000283866
0.000302037
0.000318716
0.000333614
0.000346235
0.000356657
0.000364795
0.000371142
0.000375975
0.000380118
0.000384077
0.000388777
0.000394685
0.00040253
0.000412514
0.000425023
0.000439857
0.000457009
0.000475895
0.000496169
0.000517015
0.000537962
0.000558172
0.000577308
0.000594771
0.00061056
0.000624449
0.000636837
0.000647852
0.000658214
0.000668283
0.000678878
0.000690356
0.000703395
0.000718125
0.000734922
0.000753564
0.000774081
0.000795924
0.000818863
0.000842175
0.00086556
0.000888337
0.000910359
0.00093117
0.000950914
0.000969431
0.00098717
0.00100422
0.00102124
0.00103843
0.00105643
0.00107538
0.00109577
0.0011175
0.00114083
0.0011654
0.00119123
0.00121779
0.00124499
0.00127223
0.00129948
0.00132625
0.00135264
0.00137838
0.00140378
0.00142875
0.00145376
0.00147882
0.00150447
0.00153071
0.001558
0.00158623
0.00161573
0.00164622
0.00167789
0.00171034
0.00174366
0.00177742
0.00181168
0.00184606
0.00188071
0.00191532
0.00195018
0.00198508
0.00202043
0.00205607
0.00209247
0.00212949
0.00216756
0.00220651
0.0022467
0.00228786
0.00233028
0.00237365
0.0024182
0.00246357
0.00251
0.00255714
0.00260529
0.00265414
0.00270405
0.00275476
0.00280672
0.0028597
0.00291418
0.00296996
0.00302753
0.00308669
0.00314789
0.00321092
0.00327624
0.00334361
0.00341349
0.00348564
0.00356057
0.00363807
0.0037187
0.00380231
0.00388954
0.00398029
0.00407527
0.00417437
0.00427826
0.00438671
0.00450018
0.00461813
0.00474065
0.00486674
0.00499604
0.00512704
0.00525893
0.00538979
0.00551864
0.00564365
5.34947e-06
-1.27249e-05
-2.18022e-05
-2.43791e-05
-2.11434e-05
-1.53958e-05
-7.70262e-06
-3.66116e-07
7.01071e-06
1.32344e-05
1.94903e-05
2.51309e-05
3.12262e-05
3.68474e-05
4.24717e-05
4.68133e-05
5.00209e-05
5.09082e-05
4.98887e-05
4.63456e-05
4.11202e-05
3.41065e-05
2.63917e-05
1.80209e-05
9.93089e-06
2.02258e-06
-5.03036e-06
-1.14337e-05
-1.66397e-05
-2.07778e-05
-2.32542e-05
-2.4091e-05
-2.2681e-05
-1.90631e-05
-1.28204e-05
-4.16166e-06
7.0283e-06
2.02795e-05
3.53815e-05
5.16098e-05
6.85094e-05
8.52782e-05
0.000101448
0.000116316
0.000129551
0.000140633
0.000149442
0.000155762
0.000159748
0.000161524
0.000161555
0.000160271
0.000158371
0.000156489
0.000155389
0.000155691
0.000158048
0.000162848
0.000170431
0.000180858
0.000194054
0.000209666
0.000227238
0.000246089
0.00026552
0.00028473
0.000303056
0.000319831
0.000334622
0.000347077
0.000357151
0.000364913
0.000370748
0.000375119
0.000378741
0.000382326
0.00038667
0.000392413
0.000400171
0.000410281
0.000422977
0.000438192
0.000455731
0.00047511
0.000495804
0.000517052
0.00053822
0.000558593
0.000577689
0.000595056
0.00061055
0.000624117
0.000636028
0.000646624
0.000656503
0.000666226
0.000676491
0.000687817
0.000700765
0.000715592
0.000732532
0.000751469
0.000772262
0.000794456
0.000817652
0.000841214
0.000864695
0.00088753
0.000909438
0.000930101
0.000949542
0.000967766
0.000985106
0.00100183
0.00101848
0.00103542
0.00105319
0.00107205
0.00109237
0.00111418
0.00113757
0.00116231
0.00118826
0.00121498
0.00124223
0.00126953
0.00129669
0.00132336
0.00134952
0.00137503
0.00140009
0.00142475
0.00144939
0.00147416
0.00149948
0.0015255
0.00155255
0.00158066
0.00161
0.00164043
0.00167199
0.00170439
0.00173758
0.00177122
0.00180526
0.00183942
0.00187372
0.001908
0.00194241
0.0019769
0.00201172
0.00204692
0.00208278
0.00211935
0.0021569
0.0021954
0.00223507
0.00227579
0.00231768
0.00236057
0.00240453
0.00244933
0.00249507
0.00254153
0.00258885
0.00263688
0.00268581
0.00273556
0.00278638
0.00283824
0.00289142
0.0029459
0.00300197
0.00305959
0.00311904
0.00318024
0.00324344
0.00330856
0.00337584
0.00344518
0.00351683
0.00359073
0.00366713
0.00374597
0.00382754
0.00391173
0.00399876
0.00408845
0.00418088
0.00427567
0.00437272
0.00447143
0.00457147
0.00467201
0.00477256
0.00487211
0.00497007
0.00506546
0.00515786
0.00524685
1.10657e-06
-1.37243e-05
-2.11303e-05
-2.30848e-05
-2.00391e-05
-1.47146e-05
-7.58244e-06
-5.80178e-07
6.53493e-06
1.28051e-05
1.9175e-05
2.51747e-05
3.16044e-05
3.76646e-05
4.35902e-05
4.82656e-05
5.16049e-05
5.26167e-05
5.15072e-05
4.78581e-05
4.23158e-05
3.49785e-05
2.67857e-05
1.79856e-05
9.3563e-06
9.97566e-07
-6.57853e-06
-1.33852e-05
-1.90344e-05
-2.34645e-05
-2.62387e-05
-2.71844e-05
-2.58433e-05
-2.20597e-05
-1.5565e-05
-6.4217e-06
5.31505e-06
1.92735e-05
3.50399e-05
5.19866e-05
6.94764e-05
8.68231e-05
0.000103385
0.00011858
0.000131876
0.000142921
0.000151433
0.000157366
0.000160749
0.000161878
0.000161129
0.00015912
0.000156478
0.000154005
0.000152379
0.000152388
0.000154566
0.000159486
0.000167366
0.00017834
0.000192179
0.000208584
0.000226915
0.000246521
0.000266537
0.000286241
0.00030481
0.000321672
0.000336266
0.000348373
0.000357856
0.000364952
0.000369982
0.000373614
0.000376513
0.00037954
0.00038343
0.000388967
0.000396684
0.000407025
0.00042011
0.00043592
0.0004541
0.000474192
0.000495491
0.000517285
0.000538783
0.00055934
0.000578363
0.000595497
0.000610528
0.000623535
0.00063476
0.000644696
0.000653919
0.000663126
0.00067297
0.000684093
0.000696978
0.000711973
0.000729196
0.000748579
0.000769837
0.000792537
0.000816128
0.000840028
0.000863662
0.000886533
0.000908269
0.000928652
0.000947645
0.000965381
0.000982156
0.000998374
0.00101453
0.0010311
0.00104857
0.00106731
0.0010876
0.00110953
0.0011331
0.00115809
0.00118425
0.00121119
0.00123853
0.00126588
0.00129293
0.00131942
0.00134525
0.00137038
0.00139496
0.00141916
0.00144328
0.00146762
0.00149252
0.00151822
0.00154498
0.00157292
0.00160211
0.00163248
0.00166394
0.00169627
0.00172931
0.00176279
0.00179654
0.00183036
0.00186421
0.00189799
0.00193179
0.00196567
0.00199981
0.00203434
0.0020695
0.00210541
0.00214228
0.00218017
0.00221918
0.00225928
0.00230049
0.00234271
0.0023859
0.00242991
0.00247473
0.00252022
0.00256642
0.00261327
0.00266087
0.00270922
0.00275848
0.00280872
0.00286011
0.00291271
0.00296672
0.00302217
0.00307921
0.00313783
0.00319815
0.00326013
0.00332386
0.00338928
0.00345646
0.00352532
0.00359593
0.00366819
0.00374211
0.00381756
0.00389447
0.00397262
0.00405186
0.00413183
0.00421228
0.00429274
0.00437285
0.00445202
0.00452982
0.00460563
0.00467902
0.00474949
0.00481694
0.00488113
-5.26122e-06
-1.56016e-05
-2.03757e-05
-2.1099e-05
-1.80811e-05
-1.32915e-05
-7.00606e-06
-7.24552e-07
5.90538e-06
1.21221e-05
1.8697e-05
2.51893e-05
3.21699e-05
3.88484e-05
4.5254e-05
5.03415e-05
5.3875e-05
5.4983e-05
5.3746e-05
4.98224e-05
4.38158e-05
3.59697e-05
2.71267e-05
1.76845e-05
8.33734e-06
-6.83225e-07
-8.94584e-06
-1.63425e-05
-2.25497e-05
-2.73807e-05
-3.047e-05
-3.15134e-05
-3.01215e-05
-2.60351e-05
-1.90736e-05
-9.23177e-06
3.312e-06
1.8211e-05
3.49072e-05
5.2786e-05
7.10941e-05
8.91732e-05
0.000106258
0.000121792
0.000135155
0.000146035
0.000154096
0.000159376
0.000161884
0.000162037
0.000160205
0.00015717
0.000153556
0.000150293
0.000148063
0.000147747
0.000149864
0.000155049
0.000163443
0.000175201
0.000189971
0.000207427
0.000226778
0.000247356
0.000268166
0.00028847
0.000307333
0.000324205
0.000338467
0.00034998
0.000358606
0.000364712
0.000368669
0.000371278
0.000373235
0.000375524
0.000378895
0.000384221
0.000392007
0.000402736
0.000416443
0.00043308
0.000452165
0.000473182
0.000495293
0.000517759
0.000539682
0.000560413
0.000579293
0.000596021
0.000610385
0.00062257
0.000632865
0.000641888
0.000650256
0.000658775
0.00066812
0.00067901
0.0006919
0.000707167
0.000724848
0.00074485
0.000766769
0.00079013
0.000814271
0.000838586
0.000862413
0.00088527
0.000906743
0.000926677
0.000945041
0.000962066
0.000978078
0.000993582
0.00100909
0.00102517
0.00104231
0.00106091
0.00108123
0.00110336
0.0011272
0.00115255
0.00117904
0.00120625
0.00123375
0.00126112
0.00128801
0.00131421
0.00133957
0.00136415
0.00138808
0.00141161
0.00143507
0.0014588
0.00148316
0.00150845
0.00153489
0.00156262
0.00159167
0.00162196
0.00165334
0.00168559
0.00171846
0.0017517
0.00178508
0.00181844
0.00185168
0.00188477
0.00191777
0.0019508
0.00198404
0.00201768
0.00205193
0.00208699
0.002123
0.00216008
0.00219827
0.00223757
0.00227794
0.00231928
0.0023615
0.00240447
0.0024481
0.0024923
0.00253704
0.00258231
0.00262816
0.00267464
0.00272187
0.00276995
0.00281901
0.00286916
0.00292051
0.00297313
0.00302708
0.00308237
0.00313902
0.00319698
0.00325623
0.00331667
0.00337826
0.00344088
0.00350447
0.00356887
0.00363401
0.00369971
0.00376584
0.00383217
0.00389853
0.00396463
0.00403021
0.00409493
0.00415847
0.00422044
0.00428048
0.00433821
0.00439337
0.00444575
0.00449526
0.00454172
-1.21601e-05
-1.84905e-05
-2.06599e-05
-1.99315e-05
-1.63301e-05
-1.16038e-05
-5.85281e-06
-2.15719e-07
5.81692e-06
1.18474e-05
1.85625e-05
2.55226e-05
3.30773e-05
4.04568e-05
4.75181e-05
5.31025e-05
5.68766e-05
5.80238e-05
5.65389e-05
5.2205e-05
4.55874e-05
3.70222e-05
2.73381e-05
1.70158e-05
6.74397e-06
-3.17042e-06
-1.23099e-05
-2.04926e-05
-2.7382e-05
-3.27208e-05
-3.61074e-05
-3.71911e-05
-3.56051e-05
-3.10489e-05
-2.33794e-05
-1.25927e-05
1.04587e-06
1.71508e-05
3.50591e-05
5.41204e-05
7.34844e-05
9.24533e-05
0.000110167
0.000126044
0.000139405
0.000149954
0.000157344
0.000161676
0.000162999
0.000161837
0.000158635
0.000154278
0.000149461
0.000145232
0.00014232
0.000141691
0.000143867
0.00014949
0.000158647
0.000171457
0.000187461
0.000206247
0.000226903
0.000248682
0.000270467
0.00029145
0.000310611
0.000327383
0.000341136
0.000351789
0.000359267
0.000364061
0.00036664
0.00036793
0.000368721
0.000370112
0.000372913
0.000378062
0.000386055
0.000397368
0.00041195
0.000429676
0.000449933
0.000472109
0.00049524
0.000518507
0.000540916
0.000561777
0.000580397
0.000596517
0.00060997
0.000621053
0.000630143
0.000637981
0.000645275
0.000652941
0.000661715
0.000672372
0.000685363
0.000701046
0.000719382
0.000740204
0.000762995
0.000787196
0.000812035
0.000836837
0.000860868
0.000883633
0.000904711
0.000923997
0.000941511
0.000957576
0.000972588
0.000987153
0.00100185
0.00101732
0.00103408
0.00105257
0.00107299
0.00109542
0.00111968
0.00114551
0.00117243
0.0012
0.00122768
0.00125504
0.0012817
0.00130746
0.00133219
0.001356
0.00137906
0.00140171
0.0014243
0.00144726
0.00147096
0.00149574
0.00152182
0.00154932
0.00157824
0.00160846
0.00163977
0.00167192
0.00170458
0.0017375
0.0017704
0.00180312
0.00183557
0.00186774
0.0018997
0.00193164
0.00196373
0.00199623
0.00202936
0.00206333
0.0020983
0.00213438
0.00217158
0.0022099
0.00224924
0.00228949
0.0023305
0.00237214
0.00241428
0.00245683
0.00249974
0.00254301
0.00258667
0.00263079
0.00267549
0.00272087
0.00276707
0.00281418
0.00286228
0.00291144
0.00296166
0.00301294
0.00306521
0.0031184
0.00317239
0.00322708
0.00328233
0.003338
0.00339396
0.00345007
0.0035062
0.0035622
0.00361793
0.00367323
0.00372791
0.00378178
0.00383461
0.00388617
0.0039362
0.00398444
0.00403063
0.00407458
0.00411616
0.00415525
0.00419174
0.00422553
-1.88643e-05
-2.22089e-05
-2.22193e-05
-2.00126e-05
-1.55584e-05
-1.04511e-05
-4.66821e-06
7.91511e-07
6.64499e-06
1.25846e-05
1.94031e-05
2.67114e-05
3.47812e-05
4.28147e-05
5.04566e-05
5.65273e-05
6.0563e-05
6.16905e-05
5.98845e-05
5.49847e-05
4.75851e-05
3.80771e-05
2.73257e-05
1.5869e-05
4.42741e-06
-6.64126e-06
-1.68815e-05
-2.60388e-05
-3.37316e-05
-3.96452e-05
-4.33411e-05
-4.44063e-05
-4.24639e-05
-3.72198e-05
-2.85649e-05
-1.65385e-05
-1.48639e-06
1.61402e-05
3.55826e-05
5.61146e-05
7.67806e-05
9.68011e-05
0.000115228
0.000131426
0.000144675
0.000154691
0.000161145
0.000164205
0.000164002
0.000161175
0.000156267
0.00015028
0.000144023
0.000138658
0.000135
0.000134081
0.000136441
0.000142708
0.000152909
0.000167083
0.00018465
0.00020509
0.000227354
0.000250572
0.000273497
0.000295221
0.000314645
0.00033118
0.000344204
0.000353708
0.000359717
0.000362854
0.000363717
0.000363383
0.000362777
0.000363122
0.000365315
0.000370346
0.000378707
0.000390829
0.000406562
0.000425667
0.000447392
0.000470992
0.000495356
0.000519549
0.000542472
0.000563388
0.000581589
0.000596864
0.000609129
0.000618797
0.000626368
0.000632728
0.000638713
0.000645368
0.000653508
0.000663959
0.000677166
0.000693442
0.000712654
0.000734532
0.000758432
0.000783673
0.000809356
0.00083471
0.00085893
0.0008815
0.000902011
0.000920416
0.000936812
0.000951626
0.000965364
0.000978751
0.000992456
0.00100722
0.00102357
0.00104197
0.00106258
0.00108544
0.00111027
0.00113672
0.0011642
0.0011922
0.00122008
0.00124739
0.00127372
0.00129887
0.00132276
0.00134555
0.00136749
0.001389
0.00141051
0.00143252
0.00145543
0.00147962
0.00150529
0.00153255
0.00156135
0.00159152
0.00162277
0.00165479
0.0016872
0.00171969
0.00175197
0.00178387
0.00181529
0.00184628
0.00187694
0.00190749
0.00193817
0.00196927
0.00200103
0.0020337
0.00206742
0.0021023
0.00213834
0.00217548
0.00221359
0.00225252
0.00229207
0.0023321
0.00237243
0.00241297
0.00245365
0.00249448
0.00253548
0.00257677
0.00261844
0.00266063
0.00270344
0.00274698
0.00279132
0.00283649
0.00288247
0.0029292
0.00297658
0.00302451
0.00307281
0.00312136
0.00316998
0.00321853
0.00326686
0.00331484
0.00336236
0.0034093
0.00345553
0.00350095
0.00354542
0.0035888
0.00363093
0.00367165
0.00371077
0.00374815
0.00378365
0.00381718
0.00384864
0.00387791
0.00390491
0.00392956
-2.52271e-05
-2.65971e-05
-2.49739e-05
-2.14706e-05
-1.60297e-05
-1.01772e-05
-3.85844e-06
2.00901e-06
8.15631e-06
1.43301e-05
2.14099e-05
2.90758e-05
3.76604e-05
4.62467e-05
5.43966e-05
6.08391e-05
6.50618e-05
6.60655e-05
6.38237e-05
5.81863e-05
4.97938e-05
3.90919e-05
2.7004e-05
1.41201e-05
1.2169e-06
-1.12942e-05
-2.28795e-05
-3.32159e-05
-4.18541e-05
-4.84104e-05
-5.23915e-05
-5.33449e-05
-5.08714e-05
-4.46932e-05
-3.47466e-05
-2.11409e-05
-4.30177e-06
1.52214e-05
3.65657e-05
5.88921e-05
8.11221e-05
0.00010236
0.000121565
0.000138039
0.000151037
0.000160284
0.000165496
0.00016693
0.000164821
0.000159932
0.00015294
0.000144995
0.000137043
0.000130374
0.000125906
0.000124739
0.000127429
0.00013458
0.000146134
0.000162022
0.00018153
0.000203991
0.00022819
0.0002531
0.000277322
0.000299834
0.000319459
0.000335586
0.000347627
0.000355664
0.000359842
0.000360936
0.000359713
0.000357433
0.000355186
0.000354343
0.000355897
0.00036089
0.000369797
0.000382981
0.000400172
0.000420992
0.000444518
0.000469829
0.000495644
0.000520881
0.000544331
0.000565202
0.000582793
0.000596955
0.000607705
0.000615598
0.000621296
0.000625861
0.000630293
0.000635777
0.000643227
0.000653517
0.000667074
0.000684144
0.000704486
0.000727695
0.000752967
0.000779464
0.000806138
0.000832103
0.000856478
0.000878726
0.000898461
0.000915709
0.000930669
0.000943907
0.000956067
0.000968019
0.00098055
0.000994483
0.0010104
0.00102876
0.00104968
0.00107312
0.00109869
0.0011259
0.00115408
0.00118258
0.00121068
0.00123788
0.00126373
0.00128807
0.00131087
0.00133237
0.00135291
0.00137301
0.0013932
0.00141406
0.00143604
0.00145955
0.00148477
0.0015118
0.00154049
0.00157063
0.00160182
0.00163368
0.00166577
0.00169772
0.00172921
0.00176007
0.00179022
0.00181975
0.0018488
0.00187767
0.00190664
0.00193606
0.0019662
0.00199733
0.0020296
0.00206309
0.00209777
0.00213354
0.00217022
0.00220761
0.00224546
0.00228358
0.00232178
0.00235994
0.002398
0.00243598
0.0024739
0.00251191
0.0025501
0.00258864
0.00262764
0.00266721
0.00270738
0.0027482
0.00278959
0.00283149
0.00287375
0.00291624
0.00295876
0.00300116
0.00304326
0.00308492
0.00312599
0.00316639
0.00320599
0.00324473
0.00328254
0.00331934
0.00335506
0.00338961
0.00342288
0.00345479
0.00348525
0.00351419
0.00354153
0.00356718
0.00359104
0.00361303
0.00363304
0.00365106
-3.14289e-05
-3.15713e-05
-2.87647e-05
-2.41432e-05
-1.76697e-05
-1.08636e-05
-3.64495e-06
3.05437e-06
9.94335e-06
1.67723e-05
2.44646e-05
3.27252e-05
4.18935e-05
5.10058e-05
5.96132e-05
6.63398e-05
7.05774e-05
7.12928e-05
6.84488e-05
6.18627e-05
5.22254e-05
4.00387e-05
2.63022e-05
1.16655e-05
-3.02383e-06
-1.72762e-05
-3.04705e-05
-4.22079e-05
-5.19395e-05
-5.92049e-05
-6.34511e-05
-6.41905e-05
-6.10047e-05
-5.36334e-05
-4.20665e-05
-2.64923e-05
-7.445e-06
1.4402e-05
3.80556e-05
6.25329e-05
8.66056e-05
0.000109237
0.000129282
0.00014598
0.00015857
0.000166793
0.000170432
0.000169841
0.000165387
0.000157989
0.000148496
0.000138233
0.000128306
0.000120157
0.000114817
0.000113456
0.000116645
0.00012494
0.000138189
0.000156191
0.000178066
0.000202956
0.000229447
0.000256318
0.000281999
0.000305341
0.000325088
0.000340619
0.000351394
0.000357599
0.000359528
0.000358149
0.000354437
0.000349866
0.000345724
0.000343544
0.00034443
0.000349471
0.000359119
0.000373645
0.000392644
0.000415555
0.000441244
0.000468578
0.000496072
0.000522474
0.000546456
0.000567173
0.000583936
0.000596673
0.000605533
0.00061125
0.000614687
0.000617117
0.000619733
0.000623883
0.000630586
0.000640763
0.000654815
0.000672908
0.000694662
0.000719502
0.000746428
0.000774411
0.000802228
0.000828861
0.000853345
0.000875122
0.00089384
0.000909621
0.000922798
0.000934104
0.00094436
0.000954603
0.000965759
0.000978751
0.000994205
0.00101258
0.00103392
0.00105809
0.00108457
0.00111273
0.00114173
0.0011708
0.00119913
0.00122614
0.00125136
0.00127467
0.00129611
0.00131601
0.00133483
0.00135323
0.00137184
0.00139134
0.00141225
0.00143498
0.00145972
0.0014865
0.00151511
0.00154523
0.00157637
0.00160805
0.00163973
0.00167101
0.00170153
0.00173112
0.00175972
0.00178748
0.00181462
0.00184148
0.00186843
0.00189588
0.00192414
0.0019535
0.0019841
0.00201602
0.00204916
0.00208339
0.00211845
0.00215408
0.00218999
0.00222594
0.00226171
0.00229718
0.00233226
0.00236701
0.00240148
0.00243582
0.00247018
0.00250474
0.00253961
0.00257493
0.00261073
0.00264702
0.00268372
0.00272074
0.00275791
0.00279505
0.00283197
0.0028685
0.00290444
0.00293968
0.00297408
0.00300758
0.00304009
0.00307161
0.00310207
0.00313149
0.00315981
0.00318703
0.00321309
0.003238
0.00326169
0.00328412
0.00330519
0.00332484
0.00334296
0.00335948
0.0033743
0.00338743
-3.77599e-05
-3.71222e-05
-3.34217e-05
-2.78181e-05
-2.02985e-05
-1.24062e-05
-4.06832e-06
3.75271e-06
1.1731e-05
1.95974e-05
2.82684e-05
3.74206e-05
4.73769e-05
5.71347e-05
6.62106e-05
7.31517e-05
7.72825e-05
7.75417e-05
7.38769e-05
6.61073e-05
5.49494e-05
4.09686e-05
2.52465e-05
8.50669e-06
-8.31077e-06
-2.46192e-05
-3.97056e-05
-5.30742e-05
-6.40725e-05
-7.21499e-05
-7.66734e-05
-7.71128e-05
-7.3042e-05
-6.42229e-05
-5.07062e-05
-3.2768e-05
-1.10724e-05
1.35601e-05
3.99695e-05
6.69942e-05
9.32229e-05
0.000117459
0.000138437
0.000155334
0.000167367
0.000174311
0.000176019
0.000172968
0.000165688
0.000155291
0.000142832
0.000129843
0.000117628
0.000107799
0.000101513
0.000100008
0.000103861
0.000113578
0.000128895
0.000149451
0.000174155
0.00020192
0.000231091
0.000260222
0.000287547
0.000311772
0.000331569
0.000346304
0.000355499
0.000359468
0.000358695
0.000354374
0.000347733
0.000340494
0.000334173
0.00033049
0.000330666
0.00033584
0.00034643
0.000362605
0.000383785
0.000409188
0.00043743
0.000467122
0.000496542
0.000524247
0.000548777
0.000569228
0.000584927
0.000595903
0.00060247
0.00060558
0.000606338
0.000606265
0.000606779
0.000609408
0.000615291
0.000625393
0.000640086
0.000659435
0.000682894
0.000709677
0.000738551
0.000768263
0.000797388
0.000824753
0.000849302
0.000870454
0.000887906
0.000901896
0.000912926
0.000921927
0.000929931
0.000938169
0.000947729
0.000959648
0.000974597
0.000993017
0.00101489
0.00103995
0.00106751
0.00109678
0.00112675
0.00115647
0.00118502
0.00121175
0.00123618
0.00125823
0.001278
0.00129598
0.00131277
0.00132915
0.00134592
0.00136384
0.0013835
0.00140536
0.00142956
0.00145609
0.00148462
0.00151474
0.00154582
0.00157728
0.00160848
0.00163896
0.00166831
0.00169639
0.00172317
0.00174885
0.00177373
0.00179826
0.00182288
0.00184807
0.00187419
0.00190155
0.00193029
0.00196045
0.0019919
0.00202442
0.0020577
0.0020914
0.00212518
0.00215874
0.00219182
0.00222432
0.00225615
0.00228738
0.0023181
0.00234852
0.00237879
0.00240916
0.00243975
0.00247071
0.00250208
0.00253386
0.00256596
0.00259825
0.00263054
0.00266264
0.00269432
0.00272541
0.00275572
0.00278514
0.00281354
0.0028409
0.00286718
0.00289241
0.00291658
0.00293975
0.00296193
0.00298317
0.00300348
0.00302285
0.00304124
0.00305861
0.00307483
0.00308986
0.00310358
0.00311591
0.00312679
0.0031362
-4.44353e-05
-4.32551e-05
-3.88223e-05
-3.2317e-05
-2.37444e-05
-1.46783e-05
-5.08461e-06
4.05144e-06
1.33717e-05
2.25705e-05
3.25171e-05
4.28404e-05
5.38184e-05
6.43923e-05
7.40285e-05
8.12204e-05
8.51941e-05
8.48919e-05
8.02289e-05
7.10463e-05
5.81101e-05
4.20366e-05
2.39873e-05
4.78162e-06
-1.45269e-05
-3.32381e-05
-5.05232e-05
-6.57771e-05
-7.82474e-05
-8.72781e-05
-9.21362e-05
-9.22399e-05
-8.71537e-05
-7.66709e-05
-6.09093e-05
-4.02441e-05
-1.54737e-05
1.24082e-05
4.20426e-05
7.20478e-05
0.000100801
0.000126918
0.000148999
0.000166131
0.00017751
0.000182943
0.000182387
0.00017645
0.000165855
0.000151938
0.000136
0.000119819
0.00010494
9.31691e-05
8.58084e-05
8.41679e-05
8.8828e-05
0.000100231
0.00011799
0.000141543
0.00016956
0.000200675
0.000232958
0.000264693
0.000293893
0.0003191
0.000338899
0.000352656
0.00035996
0.000361284
0.000357335
0.000349575
0.000339526
0.0003292
0.000320374
0.00031498
0.000314373
0.000319737
0.000331454
0.000349571
0.000373304
0.00040161
0.000432812
0.000465224
0.000496853
0.000526031
0.000551152
0.000571245
0.000585664
0.000594552
0.000598423
0.000598481
0.00059612
0.000593143
0.000591232
0.000592117
0.000597071
0.000607104
0.000622556
0.00064337
0.000668807
0.000697835
0.000728957
0.000760652
0.000791266
0.00081945
0.00084404
0.000864434
0.000880389
0.000892278
0.000900799
0.000907116
0.000912503
0.000918417
0.000926133
0.000936813
0.000951183
0.000969667
0.000992159
0.00101824
0.00104706
0.0010776
0.00110865
0.00113909
0.00116786
0.00119423
0.00121771
0.00123825
0.00125608
0.00127182
0.00128623
0.00130028
0.0013149
0.001331
0.00134924
0.0013701
0.0013937
0.00141994
0.0014484
0.00147852
0.00150954
0.00154075
0.0015714
0.00160094
0.00162896
0.00165529
0.00167997
0.00170327
0.00172559
0.00174746
0.00176944
0.00179208
0.0018158
0.00184094
0.00186763
0.00189588
0.00192549
0.00195619
0.00198757
0.00201922
0.00205072
0.00208173
0.00211197
0.00214131
0.0021697
0.00219722
0.00222401
0.00225034
0.00227641
0.00230249
0.00232877
0.00235541
0.00238245
0.00240989
0.0024376
0.00246546
0.00249323
0.0025207
0.00254763
0.00257382
0.00259908
0.00262331
0.00264643
0.00266842
0.0026893
0.00270913
0.00272798
0.00274596
0.00276312
0.00277954
0.00279524
0.00281022
0.00282441
0.00283778
0.0028502
0.00286161
0.00287188
0.00288096
0.00288877
0.00289529
-5.15857e-05
-4.99576e-05
-4.48666e-05
-3.7495e-05
-2.78619e-05
-1.75683e-05
-6.62164e-06
3.96839e-06
1.48045e-05
2.55375e-05
3.69704e-05
4.86785e-05
6.08652e-05
7.24225e-05
8.27312e-05
9.02184e-05
9.41069e-05
9.32308e-05
8.74938e-05
7.6763e-05
6.18417e-05
4.34202e-05
2.27433e-05
7.37266e-07
-2.14215e-05
-4.29062e-05
-6.27409e-05
-8.01821e-05
-9.43605e-05
-0.000104509
-0.000109804
-0.000109611
-0.000103462
-9.11783e-05
-7.29388e-05
-4.92536e-05
-2.10406e-05
1.05123e-05
4.38246e-05
7.72599e-05
0.000108957
0.000137312
0.000160758
0.000178264
0.000188992
0.000192781
0.000189703
0.000180525
0.000166171
0.00014822
0.000128262
0.000108363
9.03536e-05
7.6274e-05
6.7604e-05
6.57441e-05
7.12836e-05
8.45712e-05
0.000105087
0.000132047
0.000163848
0.00019881
0.000234681
0.000269434
0.000300818
0.000327179
0.000347006
0.000359658
0.000364822
0.000363134
0.000355556
0.000343854
0.000329887
0.000316
0.00030428
0.000296896
0.000295362
0.00030091
0.000313876
0.000334172
0.000360791
0.00039239
0.000426965
0.000462485
0.000496646
0.000527522
0.000553333
0.000573038
0.000586019
0.000592544
0.000593351
0.00058993
0.000584
0.00057769
0.00057298
0.000571839
0.000575693
0.000585604
0.000601868
0.000624296
0.000651936
0.000683482
0.000717135
0.000751075
0.000783383
0.000812505
0.000837159
0.000856709
0.00087098
0.000880496
0.000886174
0.000889439
0.000891839
0.000895088
0.000900675
0.000909907
0.000923579
0.000942091