/*--------------------------------*- C++ -*----------------------------------*\
| =========                 |                                                 |
| \\      /  F ield         | OpenFOAM: The Open Source CFD Toolbox           |
|  \\    /   O peration     | Version:  v1912                                 |
|   \\  /    A nd           | Website:  www.openfoam.com                      |
|    \\/     M anipulation  |                                                 |
\*---------------------------------------------------------------------------*/
FoamFile
{
    version     2.0;
    format      ascii;
    class       surfaceScalarField;
    location    "0.7";
    object      phi;
}
// * * * * * * * * * * * * * * * * * * * * * * * * * * * * * * * * * * * * * //

dimensions      [0 3 -1 0 0 0 0];
oriented        oriented;


internalField   nonuniform List<scalar> 
23660
(
3.87646e-06
7.9303e-10
3.8765e-06
-9.3005e-10
3.87645e-06
8.25147e-10
3.87637e-06
-8.26296e-10
3.87631e-06
8.4096e-10
3.87625e-06
-7.95997e-10
3.87624e-06
8.10221e-10
3.87622e-06
-7.89254e-10
3.87624e-06
7.83223e-10
3.87622e-06
-7.78127e-10
3.87624e-06
7.69157e-10
3.87622e-06
-7.55268e-10
3.87624e-06
7.61323e-10
3.87622e-06
-7.37202e-10
3.87623e-06
7.50672e-10
3.87623e-06
-7.25963e-10
3.87624e-06
7.30867e-10
3.87625e-06
-7.20226e-10
3.87627e-06
7.05864e-10
3.87629e-06
-7.1699e-10
3.87632e-06
6.78793e-10
3.87634e-06
-7.13709e-10
3.87637e-06
6.55749e-10
3.87638e-06
-7.10291e-10
3.8764e-06
6.3957e-10
3.87641e-06
-7.05596e-10
3.87642e-06
6.27189e-10
3.87642e-06
-6.91998e-10
3.87642e-06
6.22247e-10
3.87641e-06
-6.70317e-10
3.87639e-06
6.23517e-10
3.87637e-06
-6.42714e-10
3.87634e-06
6.28464e-10
3.87631e-06
-6.11559e-10
3.87627e-06
6.34571e-10
3.87623e-06
-5.82277e-10
3.87618e-06
6.39351e-10
3.87615e-06
-5.59596e-10
3.87609e-06
6.4268e-10
3.87606e-06
-5.42261e-10
3.87602e-06
6.42489e-10
3.876e-06
-5.29332e-10
3.87595e-06
6.34439e-10
3.87594e-06
-5.21041e-10
3.8759e-06
6.21211e-10
3.8759e-06
-5.17018e-10
3.87586e-06
6.04299e-10
3.87587e-06
-5.14906e-10
3.87584e-06
5.86223e-10
3.87584e-06
-5.13421e-10
3.8758e-06
5.65022e-10
3.8758e-06
-5.10791e-10
3.87576e-06
5.53687e-10
3.87575e-06
-5.03205e-10
3.8757e-06
5.50213e-10
3.87569e-06
-4.87244e-10
3.87563e-06
5.51522e-10
3.87562e-06
-4.64918e-10
3.87555e-06
5.55234e-10
3.87553e-06
-4.43852e-10
3.87546e-06
5.60878e-10
3.87543e-06
-4.26734e-10
3.87536e-06
5.63642e-10
3.87534e-06
-4.13111e-10
3.87527e-06
5.61641e-10
3.87525e-06
-4.03603e-10
3.87519e-06
5.54614e-10
3.87517e-06
-3.97809e-10
3.87511e-06
5.4384e-10
3.8751e-06
-3.94609e-10
3.87503e-06
5.30696e-10
3.87502e-06
-3.92231e-10
3.87496e-06
5.17486e-10
3.87495e-06
-3.86989e-10
3.87488e-06
5.08888e-10
3.87486e-06
-3.77526e-10
3.87479e-06
5.06592e-10
3.87477e-06
-3.64262e-10
3.87469e-06
5.08617e-10
3.87467e-06
-3.49613e-10
3.87458e-06
5.13479e-10
3.87456e-06
-3.35337e-10
3.87446e-06
5.16256e-10
3.87444e-06
-3.22827e-10
3.87435e-06
5.16143e-10
3.87433e-06
-3.13533e-10
3.87423e-06
5.12529e-10
3.87421e-06
-3.07003e-10
3.87412e-06
5.06764e-10
3.8741e-06
-3.01932e-10
3.87401e-06
4.99976e-10
3.87399e-06
-2.97204e-10
3.8739e-06
4.93759e-10
3.87388e-06
-2.91143e-10
3.87378e-06
4.89976e-10
3.87376e-06
-2.82586e-10
3.87366e-06
4.8932e-10
3.87363e-06
-2.71888e-10
3.87353e-06
4.91175e-10
3.8735e-06
-2.60113e-10
3.87339e-06
4.94088e-10
3.87336e-06
-2.48652e-10
3.87325e-06
4.96412e-10
3.87322e-06
-2.38568e-10
3.8731e-06
4.97219e-10
3.87307e-06
-2.30193e-10
3.87295e-06
4.9653e-10
3.87292e-06
-2.23139e-10
3.87281e-06
4.94915e-10
3.87277e-06
-2.16672e-10
3.87265e-06
4.9324e-10
3.87262e-06
-2.09899e-10
3.8725e-06
4.92429e-10
3.87246e-06
-2.02177e-10
3.87234e-06
4.93149e-10
3.8723e-06
-1.93261e-10
3.87217e-06
4.95487e-10
3.87213e-06
-1.8345e-10
3.872e-06
4.99005e-10
3.87196e-06
-1.7334e-10
3.87182e-06
5.02988e-10
3.87178e-06
-1.63539e-10
3.87164e-06
5.06752e-10
3.87159e-06
-1.54427e-10
3.87145e-06
5.10001e-10
3.8714e-06
-1.45982e-10
3.87126e-06
5.12938e-10
3.87121e-06
-1.37848e-10
3.87106e-06
5.15835e-10
3.87101e-06
-1.29718e-10
3.87085e-06
5.19109e-10
3.8708e-06
-1.21148e-10
3.87064e-06
5.23303e-10
3.87059e-06
-1.11909e-10
3.87043e-06
5.28621e-10
3.87037e-06
-1.02032e-10
3.8702e-06
5.35013e-10
3.87014e-06
-9.17158e-11
3.86997e-06
5.42235e-10
3.86991e-06
-8.12276e-11
3.86973e-06
5.49983e-10
3.86966e-06
-7.07649e-11
3.86948e-06
5.58068e-10
3.86941e-06
-6.03672e-11
3.86922e-06
5.66507e-10
3.86915e-06
-4.99164e-11
3.86896e-06
5.75504e-10
3.86888e-06
-3.92128e-11
3.86868e-06
5.8537e-10
3.86861e-06
-2.80904e-11
3.8684e-06
5.96394e-10
3.86832e-06
-1.65604e-11
3.8681e-06
6.08641e-10
3.86802e-06
-5.10235e-12
3.8678e-06
6.21675e-10
3.86771e-06
1.05404e-11
3.86748e-06
6.35164e-10
3.86739e-06
2.81615e-11
3.86715e-06
6.49371e-10
3.86705e-06
4.55055e-11
3.8668e-06
6.64639e-10
3.8667e-06
6.32479e-11
3.86644e-06
6.81181e-10
3.86633e-06
8.17427e-11
3.86606e-06
6.99054e-10
3.86595e-06
1.01171e-10
3.86567e-06
7.18054e-10
3.86556e-06
1.2147e-10
3.86526e-06
7.38037e-10
3.86514e-06
1.42695e-10
3.86483e-06
7.59286e-10
3.86469e-06
1.6509e-10
3.86437e-06
7.82272e-10
3.86422e-06
1.89024e-10
3.86389e-06
8.07501e-10
3.86372e-06
2.14958e-10
3.86337e-06
8.35487e-10
3.86318e-06
2.43428e-10
3.86281e-06
8.66765e-10
3.86261e-06
2.75048e-10
3.86222e-06
9.01932e-10
3.862e-06
3.10534e-10
3.86158e-06
9.41696e-10
3.86133e-06
3.50775e-10
3.86089e-06
9.87035e-10
3.86061e-06
3.97079e-10
3.86013e-06
1.03968e-09
3.85982e-06
4.51764e-10
3.8593e-06
1.1029e-09
3.85895e-06
5.19331e-10
3.85837e-06
1.18423e-09
3.85795e-06
6.11572e-10
3.85728e-06
1.30668e-09
3.85675e-06
7.60618e-10
3.8559e-06
1.52138e-09
3.85516e-06
1.02714e-09
3.85398e-06
1.90356e-09
3.85287e-06
1.50285e-09
3.85117e-06
2.55751e-09
1.95815e-09
3.84989e-06
4.18596e-06
6.90261e-10
4.18585e-06
-8.15267e-10
4.18593e-06
7.44299e-10
4.18581e-06
-7.0636e-10
4.18588e-06
7.66439e-10
4.18576e-06
-6.77416e-10
4.18584e-06
7.37999e-10
4.18572e-06
-6.76811e-10
4.1858e-06
7.05035e-10
4.18569e-06
-6.64782e-10
4.18577e-06
6.93317e-10
4.18565e-06
-6.41247e-10
4.18573e-06
6.82735e-10
4.18562e-06
-6.29474e-10
4.18571e-06
6.63708e-10
4.18561e-06
-6.29621e-10
4.18571e-06
6.31067e-10
4.18563e-06
-6.38161e-10
4.18574e-06
5.94391e-10
4.18567e-06
-6.50096e-10
4.18579e-06
5.60589e-10
4.18574e-06
-6.59273e-10
4.18586e-06
5.35559e-10
4.18581e-06
-6.57489e-10
4.18592e-06
5.21117e-10
4.18586e-06
-6.45829e-10
4.18597e-06
5.18709e-10
4.1859e-06
-6.21274e-10
4.186e-06
5.28174e-10
4.18591e-06
-5.84528e-10
4.18599e-06
5.47654e-10
4.18588e-06
-5.39206e-10
4.18594e-06
5.74021e-10
4.18582e-06
-4.93265e-10
4.18585e-06
6.01937e-10
4.18572e-06
-4.52909e-10
4.18574e-06
6.21247e-10
4.1856e-06
-4.23294e-10
4.18562e-06
6.2846e-10
4.18548e-06
-4.07263e-10
4.18551e-06
6.20742e-10
4.18538e-06
-4.04867e-10
4.18541e-06
6.01387e-10
4.1853e-06
-4.11339e-10
4.18535e-06
5.73862e-10
4.18526e-06
-4.22659e-10
4.18532e-06
5.44195e-10
4.18524e-06
-4.35461e-10
4.1853e-06
5.20603e-10
4.18523e-06
-4.41979e-10
4.18529e-06
5.04666e-10
4.18522e-06
-4.38011e-10
4.18527e-06
5.00967e-10
4.18519e-06
-4.2072e-10
4.18523e-06
5.10656e-10
4.18513e-06
-3.91653e-10
4.18516e-06
5.28566e-10
4.18505e-06
-3.56744e-10
4.18505e-06
5.4918e-10
4.18494e-06
-3.26926e-10
4.18493e-06
5.64831e-10
4.18481e-06
-3.05909e-10
4.18481e-06
5.69193e-10
4.18469e-06
-2.96171e-10
4.18469e-06
5.60817e-10
4.18458e-06
-2.95944e-10
4.18459e-06
5.44161e-10
4.1845e-06
-3.00295e-10
4.18452e-06
5.24844e-10
4.18443e-06
-3.06426e-10
4.18445e-06
5.09136e-10
4.18437e-06
-3.09652e-10
4.18438e-06
4.99197e-10
4.1843e-06
-3.04003e-10
4.18431e-06
4.98563e-10
4.18422e-06
-2.88309e-10
4.18422e-06
5.06908e-10
4.18412e-06
-2.65369e-10
4.18411e-06
5.19853e-10
4.184e-06
-2.41962e-10
4.18398e-06
5.33816e-10
4.18387e-06
-2.22878e-10
4.18385e-06
5.41588e-10
4.18373e-06
-2.09748e-10
4.18371e-06
5.40263e-10
4.1836e-06
-2.04114e-10
4.18358e-06
5.31593e-10
4.18348e-06
-2.02948e-10
4.18346e-06
5.21629e-10
4.18336e-06
-2.03069e-10
4.18335e-06
5.12975e-10
4.18325e-06
-2.01237e-10
4.18324e-06
5.08388e-10
4.18314e-06
-1.94109e-10
4.18312e-06
5.10106e-10
4.18302e-06
-1.81097e-10
4.18299e-06
5.17137e-10
4.18289e-06
-1.64582e-10
4.18285e-06
5.27427e-10
4.18274e-06
-1.47466e-10
4.18269e-06
5.37052e-10
4.18258e-06
-1.32308e-10
4.18253e-06
5.42454e-10
4.18241e-06
-1.21051e-10
4.18237e-06
5.42948e-10
4.18225e-06
-1.13636e-10
4.18221e-06
5.40866e-10
4.18209e-06
-1.08662e-10
4.18205e-06
5.38513e-10
4.18194e-06
-1.03765e-10
4.18189e-06
5.37636e-10
4.18178e-06
-9.65774e-11
4.18173e-06
5.39854e-10
4.18162e-06
-8.62269e-11
4.18156e-06
5.45403e-10
4.18144e-06
-7.29936e-11
4.18138e-06
5.53437e-10
4.18126e-06
-5.84092e-11
4.1812e-06
5.62451e-10
4.18107e-06
-4.40107e-11
4.181e-06
5.70557e-10
4.18087e-06
-3.09844e-11
4.1808e-06
5.76759e-10
4.18066e-06
-1.99854e-11
4.18059e-06
5.81162e-10
4.18046e-06
-1.01205e-11
4.18038e-06
5.84689e-10
4.18025e-06
1.20185e-13
4.18017e-06
5.89092e-10
4.18003e-06
9.90144e-12
4.17996e-06
5.95492e-10
4.17981e-06
2.13759e-11
4.17973e-06
6.03936e-10
4.17959e-06
3.45747e-11
4.1795e-06
6.14213e-10
4.17935e-06
4.91983e-11
4.17926e-06
6.25647e-10
4.1791e-06
6.45882e-11
4.17901e-06
6.3743e-10
4.17885e-06
8.00347e-11
4.17875e-06
6.49013e-10
4.17858e-06
9.51441e-11
4.17848e-06
6.60334e-10
4.17831e-06
1.09992e-10
4.1782e-06
6.71794e-10
4.17803e-06
1.25025e-10
4.17792e-06
6.84028e-10
4.17774e-06
1.40829e-10
4.17763e-06
6.97615e-10
4.17744e-06
1.57879e-10
4.17733e-06
7.12858e-10
4.17713e-06
1.76388e-10
4.17701e-06
7.29821e-10
4.17681e-06
1.9642e-10
4.17668e-06
7.48821e-10
4.17647e-06
2.18184e-10
4.17634e-06
7.69959e-10
4.17613e-06
2.41302e-10
4.17598e-06
7.92508e-10
4.17576e-06
2.65316e-10
4.17561e-06
8.15898e-10
4.17539e-06
2.90173e-10
4.17523e-06
8.40421e-10
4.17499e-06
3.1623e-10
4.17482e-06
8.6658e-10
4.17458e-06
3.43944e-10
4.1744e-06
8.94977e-10
4.17415e-06
3.73866e-10
4.17396e-06
9.26094e-10
4.1737e-06
4.06269e-10
4.1735e-06
9.60135e-10
4.17322e-06
4.41371e-10
4.17301e-06
9.97331e-10
4.17272e-06
4.79546e-10
4.17249e-06
1.03819e-09
4.17218e-06
5.21419e-10
4.17193e-06
1.08348e-09
4.17161e-06
5.67841e-10
4.17134e-06
1.13417e-09
4.171e-06
6.19903e-10
4.17071e-06
1.19151e-09
4.17034e-06
6.79066e-10
4.17002e-06
1.25724e-09
4.16963e-06
7.47387e-10
4.16928e-06
1.3337e-09
4.16885e-06
8.27454e-10
4.16846e-06
1.42459e-09
4.16799e-06
9.27281e-10
4.16755e-06
1.54478e-09
4.167e-06
1.06327e-09
4.16647e-06
1.71305e-09
4.16583e-06
1.25239e-09
4.16519e-06
1.94643e-09
4.16444e-06
1.51522e-09
4.1637e-06
2.26439e-09
4.16285e-06
1.87399e-09
4.16207e-06
2.68299e-09
4.16123e-06
2.33985e-09
4.16061e-06
3.18334e-09
2.81873e-09
4.15975e-06
4.52019e-06
5.59331e-10
4.51992e-06
-5.37885e-10
4.52011e-06
5.51419e-10
4.51989e-06
-4.87968e-10
4.5201e-06
5.59434e-10
4.51989e-06
-4.6558e-10
4.52008e-06
5.39275e-10
4.51987e-06
-4.58226e-10
4.52005e-06
5.19314e-10
4.51983e-06
-4.42303e-10
4.52001e-06
5.09439e-10
4.51979e-06
-4.21935e-10
4.51998e-06
4.97307e-10
4.51977e-06
-4.16986e-10
4.51996e-06
4.67651e-10
4.51976e-06
-4.29035e-10
4.51997e-06
4.21405e-10
4.51979e-06
-4.52318e-10
4.52001e-06
3.71266e-10
4.51984e-06
-4.77072e-10
4.52007e-06
3.27e-10
4.5199e-06
-4.93258e-10
4.52014e-06
2.98188e-10
4.51998e-06
-4.92645e-10
4.52021e-06
2.87977e-10
4.52004e-06
-4.73848e-10
4.52026e-06
2.97985e-10
4.52007e-06
-4.37706e-10
4.52028e-06
3.2645e-10
4.52008e-06
-3.8654e-10
4.52026e-06
3.67459e-10
4.52004e-06
-3.23299e-10
4.5202e-06
4.14946e-10
4.51997e-06
-2.58946e-10
4.52011e-06
4.59841e-10
4.51986e-06
-2.05038e-10
4.51999e-06
4.91375e-10
4.51974e-06
-1.69817e-10
4.51986e-06
5.01762e-10
4.51962e-06
-1.59083e-10
4.51975e-06
4.88633e-10
4.51951e-06
-1.7009e-10
4.51966e-06
4.58369e-10
4.51944e-06
-1.92223e-10
4.51959e-06
4.17354e-10
4.51939e-06
-2.20364e-10
4.51956e-06
3.76201e-10
4.51937e-06
-2.44698e-10
4.51954e-06
3.46208e-10
4.51936e-06
-2.56217e-10
4.51953e-06
3.33435e-10
4.51934e-06
-2.49213e-10
4.5195e-06
3.41334e-10
4.5193e-06
-2.23683e-10
4.51944e-06
3.68053e-10
4.51924e-06
-1.84319e-10
4.51936e-06
4.03471e-10
4.51914e-06
-1.37164e-10
4.51925e-06
4.38581e-10
4.51903e-06
-9.83592e-11
4.51913e-06
4.62835e-10
4.5189e-06
-7.47462e-11
4.519e-06
4.68441e-10
4.51877e-06
-7.06811e-11
4.51888e-06
4.55153e-10
4.51866e-06
-8.00883e-11
4.51877e-06
4.3058e-10
4.51857e-06
-9.56061e-11
4.51869e-06
4.04699e-10
4.51849e-06
-1.10099e-10
4.51862e-06
3.85253e-10
4.51842e-06
-1.16275e-10
4.51855e-06
3.78277e-10
4.51835e-06
-1.09205e-10
4.51846e-06
3.87971e-10
4.51826e-06
-8.89216e-11
4.51836e-06
4.09023e-10
4.51815e-06
-5.93966e-11
4.51824e-06
4.34168e-10
4.51803e-06
-2.86966e-11
4.5181e-06
4.56752e-10
4.51789e-06
-5.30453e-12
4.51796e-06
4.68824e-10
4.51774e-06
8.40774e-12
4.51781e-06
4.66097e-10
4.5176e-06
1.00795e-11
4.51768e-06
4.5384e-10
4.51747e-06
6.16081e-12
4.51755e-06
4.40206e-10
4.51735e-06
1.61088e-12
4.51743e-06
4.29829e-10
4.51723e-06
1.1389e-12
4.51731e-06
4.28564e-10
4.5171e-06
7.88673e-12
4.51718e-06
4.38751e-10
4.51697e-06
2.30637e-11
4.51703e-06
4.54413e-10
4.51682e-06
4.51484e-11
4.51688e-06
4.72297e-10
4.51666e-06
6.7882e-11
4.51671e-06
4.88078e-10
4.51649e-06
8.61584e-11
4.51654e-06
4.97557e-10
4.51632e-06
9.71217e-11
4.51637e-06
4.99095e-10
4.51615e-06
1.03207e-10
4.51619e-06
4.9636e-10
4.51598e-06
1.0658e-10
4.51602e-06
4.93702e-10
4.51581e-06
1.10271e-10
4.51585e-06
4.94514e-10
4.51564e-06
1.17339e-10
4.51568e-06
5.01372e-10
4.51546e-06
1.2931e-10
4.51549e-06
5.12965e-10
4.51527e-06
1.45873e-10
4.5153e-06
5.27223e-10
4.51508e-06
1.64881e-10
4.5151e-06
5.42002e-10
4.51487e-06
1.83153e-10
4.51489e-06
5.54879e-10
4.51466e-06
1.98741e-10
4.51467e-06
5.64255e-10
4.51444e-06
2.11337e-10
4.51445e-06
5.70796e-10
4.51422e-06
2.22026e-10
4.51422e-06
5.76914e-10
4.51399e-06
2.32549e-10
4.514e-06
5.84405e-10
4.51376e-06
2.44208e-10
4.51376e-06
5.94497e-10
4.51353e-06
2.58494e-10
4.51352e-06
6.07598e-10
4.51328e-06
2.75662e-10
4.51327e-06
6.23129e-10
4.51303e-06
2.94987e-10
4.51301e-06
6.4003e-10
4.51276e-06
3.15177e-10
4.51274e-06
6.57102e-10
4.51249e-06
3.35083e-10
4.51246e-06
6.73523e-10
4.5122e-06
3.54223e-10
4.51217e-06
6.89264e-10
4.51191e-06
3.72862e-10
4.51188e-06
7.05055e-10
4.51161e-06
3.91787e-10
4.51157e-06
7.2194e-10
4.5113e-06
4.11942e-10
4.51126e-06
7.40784e-10
4.51098e-06
4.34076e-10
4.51093e-06
7.62013e-10
4.51065e-06
4.58552e-10
4.51059e-06
7.85754e-10
4.51031e-06
4.85391e-10
4.51024e-06
8.11804e-10
4.50995e-06
5.14223e-10
4.50988e-06
8.39785e-10
4.50957e-06
5.44734e-10
4.5095e-06
8.6931e-10
4.50919e-06
5.76651e-10
4.5091e-06
9.0013e-10
4.50878e-06
6.09793e-10
4.50869e-06
9.32497e-10
4.50836e-06
6.44647e-10
4.50826e-06
9.67097e-10
4.50792e-06
6.8217e-10
4.50781e-06
1.00481e-09
4.50746e-06
7.23233e-10
4.50734e-06
1.04638e-09
4.50698e-06
7.68216e-10
4.50685e-06
1.09225e-09
4.50647e-06
8.17391e-10
4.50633e-06
1.14278e-09
4.50594e-06
8.71216e-10
4.50578e-06
1.19855e-09
4.50537e-06
9.30476e-10
4.50519e-06
1.2605e-09
4.50476e-06
9.96345e-10
4.50457e-06
1.33001e-09
4.50411e-06
1.07047e-09
4.5039e-06
1.40905e-09
4.50342e-06
1.15522e-09
4.50318e-06
1.5006e-09
4.50267e-06
1.25448e-09
4.50239e-06
1.61002e-09
4.50185e-06
1.37524e-09
4.50152e-06
1.74644e-09
4.50092e-06
1.52769e-09
4.50055e-06
1.92048e-09
4.49989e-06
1.72166e-09
4.49946e-06
2.14086e-09
4.49875e-06
1.96592e-09
4.49828e-06
2.41565e-09
4.49753e-06
2.26918e-09
4.49704e-06
2.75214e-09
4.49627e-06
2.637e-09
4.49581e-06
3.14935e-09
4.49509e-06
3.05321e-09
4.49479e-06
3.49185e-09
3.53346e-09
4.49407e-06
4.88109e-06
4.20245e-10
4.8808e-06
-2.53704e-10
4.88095e-06
4.04814e-10
4.88073e-06
-2.6527e-10
4.88093e-06
3.58122e-10
4.88074e-06
-2.75062e-10
4.88093e-06
3.43672e-10
4.88073e-06
-2.54407e-10
4.88091e-06
3.36593e-10
4.8807e-06
-2.29659e-10
4.88087e-06
3.34513e-10
4.88067e-06
-2.13367e-10
4.88084e-06
3.19562e-10
4.88064e-06
-2.17066e-10
4.88083e-06
2.79062e-10
4.88065e-06
-2.44625e-10
4.88085e-06
2.21536e-10
4.88068e-06
-2.85747e-10
4.88089e-06
1.60937e-10
4.88074e-06
-3.25994e-10
4.88096e-06
1.09692e-10
4.88081e-06
-3.50761e-10
4.88103e-06
8.0413e-11
4.88089e-06
-3.51634e-10
4.8811e-06
7.78159e-11
4.88095e-06
-3.25313e-10
4.88115e-06
1.02405e-10
4.88099e-06
-2.74971e-10
4.88116e-06
1.49716e-10
4.88098e-06
-2.05793e-10
4.88114e-06
2.13805e-10
4.88094e-06
-1.25942e-10
4.88107e-06
2.86294e-10
4.88086e-06
-4.74611e-11
4.88096e-06
3.51913e-10
4.88074e-06
1.59101e-11
4.88084e-06
3.94961e-10
4.88061e-06
5.4759e-11
4.88071e-06
4.05999e-10
4.88049e-06
6.04278e-11
4.88059e-06
3.84381e-10
4.88039e-06
3.74156e-11
4.8805e-06
3.42417e-10
4.88031e-06
-1.42045e-12
4.88044e-06
2.90366e-10
4.88027e-06
-4.89391e-11
4.8804e-06
2.41848e-10
4.88024e-06
-8.64481e-11
4.88038e-06
2.0903e-10
4.88023e-06
-1.02885e-10
4.88036e-06
2.01209e-10
4.8802e-06
-9.20416e-11
4.88032e-06
2.22174e-10
4.88015e-06
-5.60276e-11
4.88026e-06
2.64577e-10
4.88008e-06
-5.94229e-12
4.88017e-06
3.17677e-10
4.87998e-06
5.20215e-11
4.88005e-06
3.66808e-10
4.87985e-06
9.87567e-11
4.87992e-06
3.98279e-10
4.87972e-06
1.23523e-10
4.87978e-06
4.03306e-10
4.87959e-06
1.21908e-10
4.87966e-06
3.86264e-10
4.87948e-06
1.02284e-10
4.87955e-06
3.56506e-10
4.87938e-06
7.49226e-11
4.87946e-06
3.25514e-10
4.8793e-06
5.14141e-11
4.87938e-06
3.04673e-10
4.87922e-06
4.14633e-11
4.8793e-06
3.03247e-10
4.87913e-06
5.1274e-11
4.8792e-06
3.21778e-10
4.87903e-06
7.84215e-11
4.87909e-06
3.53128e-10
4.87891e-06
1.15744e-10
4.87896e-06
3.89488e-10
4.87878e-06
1.53524e-10
4.87881e-06
4.19931e-10
4.87863e-06
1.8084e-10
4.87866e-06
4.35769e-10
4.87848e-06
1.92104e-10
4.87851e-06
4.3447e-10
4.87833e-06
1.88091e-10
4.87836e-06
4.22497e-10
4.87819e-06
1.76989e-10
4.87822e-06
4.07614e-10
4.87806e-06
1.66398e-10
4.87809e-06
3.97697e-10
4.87793e-06
1.63754e-10
4.87796e-06
3.99444e-10
4.87779e-06
1.74086e-10
4.87782e-06
4.14063e-10
4.87764e-06
1.94663e-10
4.87766e-06
4.36837e-10
4.87749e-06
2.2192e-10
4.87749e-06
4.62762e-10
4.87731e-06
2.49253e-10
4.87732e-06
4.84847e-10
4.87713e-06
2.70288e-10
4.87713e-06
4.97741e-10
4.87695e-06
2.81075e-10
4.87695e-06
5.01526e-10
4.87676e-06
2.84676e-10
4.87676e-06
5.00497e-10
4.87658e-06
2.8534e-10
4.87658e-06
4.99031e-10
4.8764e-06
2.87713e-10
4.87639e-06
5.01939e-10
4.87621e-06
2.96012e-10
4.8762e-06
5.12229e-10
4.87602e-06
3.11397e-10
4.876e-06
5.28729e-10
4.87582e-06
3.31987e-10
4.8758e-06
5.49084e-10
4.87561e-06
3.55099e-10
4.87558e-06
5.69884e-10
4.87538e-06
3.76985e-10
4.87535e-06
5.87699e-10
4.87516e-06
3.94884e-10
4.87512e-06
6.01008e-10
4.87492e-06
4.08443e-10
4.87488e-06
6.10988e-10
4.87468e-06
4.19685e-10
4.87464e-06
6.20152e-10
4.87444e-06
4.3116e-10
4.8744e-06
6.30833e-10
4.87419e-06
4.45069e-10
4.87414e-06
6.44829e-10
4.87394e-06
4.62619e-10
4.87388e-06
6.6273e-10
4.87368e-06
4.83877e-10
4.87362e-06
6.83885e-10
4.8734e-06
5.07725e-10
4.87334e-06
7.06759e-10
4.87312e-06
5.32448e-10
4.87305e-06
7.29665e-10
4.87283e-06
5.56562e-10
4.87275e-06
7.51555e-10
4.87252e-06
5.79489e-10
4.87244e-06
7.72461e-10
4.87221e-06
6.01725e-10
4.87212e-06
7.93348e-10
4.87189e-06
6.24482e-10
4.8718e-06
8.15564e-10
4.87156e-06
6.49081e-10
4.87146e-06
8.40253e-10
4.87122e-06
6.76448e-10
4.87111e-06
8.68039e-10
4.87086e-06
7.06946e-10
4.87075e-06
8.98983e-10
4.87049e-06
7.40363e-10
4.87037e-06
9.3262e-10
4.87011e-06
7.76111e-10
4.86998e-06
9.68354e-10
4.86971e-06
8.13686e-10
4.86958e-06
1.00583e-09
4.8693e-06
8.52891e-10
4.86916e-06
1.04502e-09
4.86887e-06
8.93879e-10
4.86872e-06
1.08633e-09
4.86842e-06
9.37315e-10
4.86826e-06
1.13067e-09
4.86796e-06
9.84229e-10
4.86779e-06
1.17911e-09
4.86747e-06
1.0356e-09
4.86729e-06
1.23248e-09
4.86696e-06
1.09211e-09
4.86676e-06
1.29135e-09
4.86643e-06
1.15426e-09
4.86621e-06
1.35622e-09
4.86586e-06
1.22266e-09
4.86563e-06
1.42782e-09
4.86526e-06
1.29824e-09
4.86502e-06
1.50735e-09
4.86463e-06
1.38246e-09
4.86437e-06
1.59667e-09
4.86396e-06
1.47767e-09
4.86367e-06
1.69871e-09
4.86324e-06
1.58743e-09
4.86292e-06
1.81787e-09
4.86246e-06
1.71683e-09
4.86211e-06
1.95981e-09
4.86161e-06
1.8717e-09
4.86123e-06
2.13016e-09
4.8607e-06
2.05735e-09
4.86028e-06
2.3337e-09
4.85973e-06
2.27842e-09
4.85929e-06
2.57473e-09
4.85872e-06
2.53917e-09
4.85828e-06
2.85691e-09
4.85771e-06
2.84241e-09
4.85728e-06
3.18096e-09
4.85673e-06
3.1852e-09
4.85634e-06
3.53463e-09
4.85588e-06
3.51215e-09
4.8555e-06
3.87544e-09
4.02932e-09
4.855e-06
5.27077e-06
2.98286e-10
5.27057e-06
-5.66575e-11
5.27066e-06
3.19849e-10
5.27047e-06
-7.62884e-11
5.27057e-06
2.50677e-10
5.27042e-06
-1.20367e-10
5.27055e-06
2.10066e-10
5.27041e-06
-1.12482e-10
5.27053e-06
2.14384e-10
5.27039e-06
-8.68145e-11
5.27051e-06
2.19494e-10
5.27036e-06
-6.91354e-11
5.27048e-06
2.00915e-10
5.27035e-06
-8.29206e-11
5.27048e-06
1.4908e-10
5.27036e-06
-1.2832e-10
5.2705e-06
8.11889e-11
5.2704e-06
-1.87173e-10
5.27055e-06
1.00108e-11
5.27047e-06
-2.41288e-10
5.27063e-06
-4.78373e-11
5.27055e-06
-2.72511e-10
5.2707e-06
-7.67779e-11
5.27063e-06
-2.71879e-10
5.27077e-06
-7.07298e-11
5.27068e-06
-2.35831e-10
5.27082e-06
-3.00891e-11
5.27071e-06
-1.70858e-10
5.27082e-06
3.90554e-11
5.2707e-06
-8.36981e-11
5.27079e-06
1.28609e-10
5.27065e-06
1.43784e-11
5.27071e-06
2.22874e-10
5.27055e-06
1.11628e-10
5.2706e-06
3.03901e-10
5.27043e-06
1.85996e-10
5.27047e-06
3.55581e-10
5.2703e-06
2.24357e-10
5.27034e-06
3.6732e-10
5.27018e-06
2.21068e-10
5.27022e-06
3.41182e-10
5.27007e-06
1.84061e-10
5.27013e-06
2.88534e-10
5.27e-06
1.27018e-10
5.27006e-06
2.23564e-10
5.26995e-06
6.5686e-11
5.27003e-06
1.64654e-10
5.26992e-06
1.9146e-11
5.27e-06
1.28599e-10
5.2699e-06
6.02581e-13
5.26997e-06
1.27986e-10
5.26986e-06
1.60481e-11
5.26993e-06
1.60504e-10
5.26981e-06
6.34128e-11
5.26985e-06
2.17905e-10
5.26972e-06
1.29545e-10
5.26975e-06
2.86015e-10
5.2696e-06
1.97613e-10
5.26962e-06
3.47373e-10
5.26947e-06
2.50113e-10
5.26948e-06
3.85194e-10
5.26933e-06
2.73448e-10
5.26935e-06
3.90741e-10
5.2692e-06
2.65827e-10
5.26922e-06
3.70684e-10
5.26908e-06
2.36928e-10
5.26911e-06
3.35042e-10
5.26898e-06
1.99381e-10
5.26901e-06
2.98673e-10
5.26889e-06
1.68591e-10
5.26892e-06
2.76588e-10
5.2688e-06
1.57959e-10
5.26883e-06
2.79648e-10
5.2687e-06
1.72495e-10
5.26872e-06
3.05455e-10
5.26859e-06
2.07198e-10
5.2686e-06
3.47243e-10
5.26846e-06
2.5306e-10
5.26846e-06
3.93789e-10
5.26831e-06
2.97145e-10
5.2683e-06
4.31561e-10
5.26816e-06
3.27126e-10
5.26814e-06
4.50305e-10
5.268e-06
3.36314e-10
5.26798e-06
4.50007e-10
5.26784e-06
3.28765e-10
5.26783e-06
4.36692e-10
5.26769e-06
3.12524e-10
5.26768e-06
4.197e-10
5.26755e-06
2.97953e-10
5.26753e-06
4.09817e-10
5.2674e-06
2.94914e-10
5.26739e-06
4.15154e-10
5.26725e-06
3.08106e-10
5.26723e-06
4.35029e-10
5.26709e-06
3.33763e-10
5.26707e-06
4.65084e-10
5.26692e-06
3.66663e-10
5.26689e-06
4.98244e-10
5.26674e-06
3.9859e-10
5.26669e-06
5.2591e-10
5.26654e-06
4.21847e-10
5.2665e-06
5.42161e-10
5.26635e-06
4.32958e-10
5.2663e-06
5.4804e-10
5.26615e-06
4.35541e-10
5.2661e-06
5.4783e-10
5.26595e-06
4.34805e-10
5.2659e-06
5.47351e-10
5.26576e-06
4.36941e-10
5.2657e-06
5.52587e-10
5.26555e-06
4.4694e-10
5.2655e-06
5.66651e-10
5.26535e-06
4.65477e-10
5.26529e-06
5.88329e-10
5.26513e-06
4.90368e-10
5.26506e-06
6.14623e-10
5.2649e-06
5.17897e-10
5.26483e-06
6.41057e-10
5.26466e-06
5.43509e-10
5.26459e-06
6.63539e-10
5.26442e-06
5.64071e-10
5.26434e-06
6.80581e-10
5.26417e-06
5.7947e-10
5.26408e-06
6.93703e-10
5.26391e-06
5.92196e-10
5.26382e-06
7.05721e-10
5.26365e-06
6.05407e-10
5.26356e-06
7.19714e-10
5.26338e-06
6.21814e-10
5.26329e-06
7.37874e-10
5.26311e-06
6.42887e-10
5.26301e-06
7.60828e-10
5.26283e-06
6.68529e-10
5.26272e-06
7.87687e-10
5.26254e-06
6.97212e-10
5.26243e-06
8.16479e-10
5.26223e-06
7.26775e-10
5.26212e-06
8.45122e-10
5.26192e-06
7.55445e-10
5.2618e-06
8.72394e-10
5.26159e-06
7.82615e-10
5.26147e-06
8.98411e-10
5.26126e-06
8.08996e-10
5.26113e-06
9.24406e-10
5.26092e-06
8.36133e-10
5.26078e-06
9.52045e-10
5.26056e-06
8.65643e-10
5.26042e-06
9.82728e-10
5.2602e-06
8.98631e-10
5.26005e-06
1.01718e-09
5.25982e-06
9.35436e-10
5.25967e-06
1.05534e-09
5.25943e-06
9.75668e-10
5.25927e-06
1.09658e-09
5.25902e-06
1.01858e-09
5.25885e-06
1.14016e-09
5.2586e-06
1.06354e-09
5.25842e-06
1.18567e-09
5.25816e-06
1.11039e-09
5.25798e-06
1.23323e-09
5.25771e-06
1.15955e-09
5.25751e-06
1.28351e-09
5.25724e-06
1.21187e-09
5.25703e-06
1.33756e-09
5.25675e-06
1.26848e-09
5.25653e-06
1.39649e-09
5.25624e-06
1.33044e-09
5.25601e-06
1.46128e-09
5.2557e-06
1.3986e-09
5.25546e-06
1.53264e-09
5.25514e-06
1.47361e-09
5.25488e-06
1.61124e-09
5.25455e-06
1.55622e-09
5.25428e-06
1.69798e-09
5.25393e-06
1.64756e-09
5.25364e-06
1.79429e-09
5.25328e-06
1.74941e-09
5.25297e-06
1.90239e-09
5.25259e-06
1.86443e-09
5.25226e-06
2.02536e-09
5.25185e-06
1.99597e-09
5.2515e-06
2.1667e-09
5.25107e-06
2.14755e-09
5.2507e-06
2.32977e-09
5.25025e-06
2.3223e-09
5.24986e-06
2.51741e-09
5.2494e-06
2.52292e-09
5.249e-06
2.7321e-09
5.24853e-06
2.75173e-09
5.24812e-06
2.97581e-09
5.24765e-06
3.01017e-09
5.24726e-06
3.24903e-09
5.24681e-06
3.29721e-09
5.24644e-06
3.54772e-09
5.24602e-06
3.60105e-09
5.24572e-06
3.83693e-09
5.24533e-06
3.9066e-09
5.24501e-06
4.18889e-09
4.37498e-09
5.24467e-06
5.69155e-06
2.03288e-10
5.69145e-06
4.35249e-11
5.69149e-06
2.80403e-10
5.69136e-06
5.51795e-11
5.69139e-06
2.18085e-10
5.69126e-06
1.30387e-11
5.69131e-06
1.61623e-10
5.69121e-06
-8.58724e-12
5.69127e-06
1.54342e-10
5.69118e-06
3.93919e-12
5.69124e-06
1.54249e-10
5.69116e-06
1.27996e-11
5.69123e-06
1.31241e-10
5.69115e-06
-9.17144e-12
5.69123e-06
7.02469e-11
5.69117e-06
-6.99035e-11
5.69127e-06
-1.03182e-11
5.69122e-06
-1.43973e-10
5.69133e-06
-9.47701e-11
5.69129e-06
-2.08225e-10
5.69141e-06
-1.5811e-10
5.69138e-06
-2.44334e-10
5.69148e-06
-1.84481e-10
5.69145e-06
-2.40136e-10
5.69155e-06
-1.67577e-10
5.69151e-06
-1.94261e-10
5.69159e-06
-1.09733e-10
5.69153e-06
-1.12482e-10
5.69159e-06
-1.88253e-11
5.69151e-06
-5.49324e-12
5.69154e-06
9.48141e-11
5.69144e-06
1.16468e-10
5.69145e-06
2.09784e-10
5.69134e-06
2.29034e-10
5.69133e-06
3.06127e-10
5.69121e-06
3.11482e-10
5.6912e-06
3.63944e-10
5.69108e-06
3.4929e-10
5.69107e-06
3.74638e-10
5.69095e-06
3.38297e-10
5.69095e-06
3.41188e-10
5.69085e-06
2.88097e-10
5.69086e-06
2.76137e-10
5.69077e-06
2.14966e-10
5.6908e-06
1.98699e-10
5.69072e-06
1.40284e-10
5.69076e-06
1.31289e-10
5.69069e-06
8.58779e-11
5.69072e-06
9.35699e-11
5.69066e-06
6.8083e-11
5.69069e-06
9.76987e-11
5.69061e-06
9.20044e-11
5.69063e-06
1.41523e-10
5.69054e-06
1.51757e-10
5.69054e-06
2.14703e-10
5.69044e-06
2.31718e-10
5.69043e-06
2.97742e-10
5.69032e-06
3.10478e-10
5.6903e-06
3.6901e-10
5.69018e-06
3.67787e-10
5.69015e-06
4.1058e-10
5.69004e-06
3.90011e-10
5.69001e-06
4.16249e-10
5.6899e-06
3.77837e-10
5.68988e-06
3.91625e-10
5.68977e-06
3.40825e-10
5.68976e-06
3.49377e-10
5.68966e-06
2.95033e-10
5.68965e-06
3.07856e-10
5.68956e-06
2.59303e-10
5.68956e-06
2.85146e-10
5.68946e-06
2.4963e-10
5.68945e-06
2.92188e-10
5.68935e-06
2.68795e-10
5.68933e-06
3.25784e-10
5.68923e-06
3.11635e-10
5.6892e-06
3.7789e-10
5.68909e-06
3.66199e-10
5.68905e-06
4.33647e-10
5.68893e-06
4.16389e-10
5.68888e-06
4.77172e-10
5.68876e-06
4.48337e-10
5.68871e-06
4.98458e-10
5.68859e-06
4.56896e-10
5.68854e-06
4.98217e-10
5.68843e-06
4.4655e-10
5.68838e-06
4.82793e-10
5.68827e-06
4.26496e-10
5.68822e-06
4.63861e-10
5.68811e-06
4.09627e-10
5.68807e-06
4.54419e-10
5.68795e-06
4.07566e-10
5.6879e-06
4.62845e-10
5.68779e-06
4.23701e-10
5.68774e-06
4.88147e-10
5.68761e-06
4.54865e-10
5.68755e-06
5.25334e-10
5.68743e-06
4.93743e-10
5.68736e-06
5.65031e-10
5.68723e-06
5.30151e-10
5.68716e-06
5.97375e-10
5.68702e-06
5.55698e-10
5.68695e-06
6.16827e-10
5.68681e-06
5.67995e-10
5.68674e-06
6.24356e-10
5.6866e-06
5.70414e-10
5.68653e-06
6.2471e-10
5.68639e-06
5.69313e-10
5.68631e-06
6.25316e-10
5.68618e-06
5.72233e-10
5.6861e-06
6.32965e-10
5.68596e-06
5.8433e-10
5.68588e-06
6.50692e-10
5.68574e-06
6.06427e-10
5.68565e-06
6.77527e-10
5.6855e-06
6.36089e-10
5.68541e-06
7.09512e-10
5.68526e-06
6.68312e-10
5.68516e-06
7.41165e-10
5.685e-06
6.97792e-10
5.6849e-06
7.68055e-10
5.68474e-06
7.21398e-10
5.68463e-06
7.88786e-10
5.68447e-06
7.39306e-10
5.68436e-06
8.04948e-10
5.6842e-06
7.54168e-10
5.68408e-06
8.19828e-10
5.68392e-06
7.6965e-10
5.6838e-06
8.37105e-10
5.68363e-06
7.89082e-10
5.68351e-06
8.59409e-10
5.68334e-06
8.14189e-10
5.68322e-06
8.87437e-10
5.68304e-06
8.44665e-10
5.68291e-06
9.19964e-10
5.68273e-06
8.78549e-10
5.68259e-06
9.54564e-10
5.6824e-06
9.13253e-10
5.68226e-06
9.88814e-10
5.68207e-06
9.4678e-10
5.68192e-06
1.02138e-09
5.68172e-06
9.78552e-10
5.68157e-06
1.05249e-09
5.68137e-06
1.00949e-09
5.68121e-06
1.08361e-09
5.681e-06
1.04142e-09
5.68084e-06
1.11671e-09
5.68063e-06
1.07621e-09
5.68046e-06
1.15341e-09
5.68024e-06
1.11514e-09
5.68006e-06
1.19451e-09
5.67984e-06
1.15848e-09
5.67965e-06
1.23983e-09
5.67942e-06
1.20572e-09
5.67923e-06
1.28861e-09
5.679e-06
1.25596e-09
5.6788e-06
1.33997e-09
5.67855e-06
1.30847e-09
5.67834e-06
1.39346e-09
5.67809e-06
1.36313e-09
5.67787e-06
1.4493e-09
5.67761e-06
1.4205e-09
5.67739e-06
1.50835e-09
5.67712e-06
1.48163e-09
5.67688e-06
1.57178e-09
5.6766e-06
1.54774e-09
5.67636e-06
1.64081e-09
5.67607e-06
1.61999e-09
5.67582e-06
1.71648e-09
5.67552e-06
1.6993e-09
5.67525e-06
1.79962e-09
5.67494e-06
1.78642e-09
5.67466e-06
1.89097e-09
5.67433e-06
1.88218e-09
5.67404e-06
1.99149e-09
5.6737e-06
1.98771e-09
5.67339e-06
2.10257e-09
5.67303e-06
2.10465e-09
5.67271e-06
2.22607e-09
5.67234e-06
2.23503e-09
5.672e-06
2.36412e-09
5.67161e-06
2.38101e-09
5.67126e-06
2.51882e-09
5.67087e-06
2.5446e-09
5.6705e-06
2.69202e-09
5.6701e-06
2.7275e-09
5.66973e-06
2.88526e-09
5.66932e-06
2.93108e-09
5.66895e-06
3.09961e-09
5.66855e-06
3.15599e-09
5.66819e-06
3.33515e-09
5.6678e-06
3.40148e-09
5.66746e-06
3.58974e-09
5.66709e-06
3.66279e-09
5.66679e-06
3.84958e-09
5.66647e-06
3.91765e-09
5.66619e-06
4.12089e-09
5.66588e-06
4.2154e-09
5.66564e-06
4.43475e-09
4.62465e-09
5.66539e-06
6.14594e-06
1.32856e-10
6.14589e-06
9.13741e-11
6.14593e-06
2.44381e-10
6.14584e-06
1.43733e-10
6.14583e-06
2.24578e-10
6.14573e-06
1.19357e-10
6.14572e-06
1.73473e-10
6.14562e-06
9.15848e-11
6.14563e-06
1.38991e-10
6.14556e-06
7.89813e-11
6.14559e-06
1.18828e-10
6.14554e-06
6.80124e-11
6.14558e-06
8.48382e-11
6.14555e-06