/*--------------------------------*- C++ -*----------------------------------*\
| =========                 |                                                 |
| \\      /  F ield         | OpenFOAM: The Open Source CFD Toolbox           |
|  \\    /   O peration     | Version:  v1912                                 |
|   \\  /    A nd           | Website:  www.openfoam.com                      |
|    \\/     M anipulation  |                                                 |
\*---------------------------------------------------------------------------*/
FoamFile
{
    version     2.0;
    format      ascii;
    class       volVectorField;
    location    "0.7";
    object      U;
}
// * * * * * * * * * * * * * * * * * * * * * * * * * * * * * * * * * * * * * //

dimensions      [0 1 -1 0 0 0 0];


internalField   nonuniform List<vector> 
12000
(
(0.99943 8.3663e-05 0)
(1.00058 -9.03709e-05 0)
(0.999454 8.2738e-05 0)
(1.00059 -8.75867e-05 0)
(0.999459 8.44638e-05 0)
(1.00057 -8.5486e-05 0)
(0.999451 8.46502e-05 0)
(1.00055 -8.46853e-05 0)
(0.999441 8.4103e-05 0)
(1.00054 -8.42457e-05 0)
(0.999432 8.35614e-05 0)
(1.00052 -8.37866e-05 0)
(0.999425 8.3067e-05 0)
(1.00051 -8.33758e-05 0)
(0.999417 8.25259e-05 0)
(1.00049 -8.3165e-05 0)
(0.999412 8.18374e-05 0)
(1.00049 -8.31584e-05 0)
(0.999414 8.10186e-05 0)
(1.00049 -8.32646e-05 0)
(0.999424 8.01929e-05 0)
(1.0005 -8.33382e-05 0)
(0.999439 7.94895e-05 0)
(1.00051 -8.32639e-05 0)
(0.999456 7.8986e-05 0)
(1.00053 -8.29591e-05 0)
(0.99947 7.87354e-05 0)
(1.00054 -8.24484e-05 0)
(0.999481 7.87622e-05 0)
(1.00055 -8.1642e-05 0)
(0.999487 7.91201e-05 0)
(1.00055 -8.05424e-05 0)
(0.999486 7.97401e-05 0)
(1.00054 -7.92808e-05 0)
(0.999476 8.04357e-05 0)
(1.00053 -7.80591e-05 0)
(0.999456 8.10073e-05 0)
(1.00051 -7.70536e-05 0)
(0.999428 8.13036e-05 0)
(1.00048 -7.63886e-05 0)
(0.999395 8.12893e-05 0)
(1.00045 -7.6e-05 0)
(0.999361 8.10644e-05 0)
(1.00042 -7.57688e-05 0)
(0.999332 8.07359e-05 0)
(1.0004 -7.56501e-05 0)
(0.99931 8.03264e-05 0)
(1.00038 -7.5589e-05 0)
(0.999297 7.99359e-05 0)
(1.00038 -7.54813e-05 0)
(0.999292 7.9655e-05 0)
(1.00038 -7.51999e-05 0)
(0.999291 7.96079e-05 0)
(1.00038 -7.46224e-05 0)
(0.999291 7.99211e-05 0)
(1.00039 -7.37086e-05 0)
(0.999285 8.05267e-05 0)
(1.00038 -7.26062e-05 0)
(0.99927 8.125e-05 0)
(1.00037 -7.15184e-05 0)
(0.999245 8.18485e-05 0)
(1.00034 -7.06597e-05 0)
(0.999211 8.21588e-05 0)
(1.00031 -7.01261e-05 0)
(0.999171 8.22062e-05 0)
(1.00027 -6.98028e-05 0)
(0.999131 8.21298e-05 0)
(1.00024 -6.956e-05 0)
(0.999096 8.20181e-05 0)
(1.00022 -6.93525e-05 0)
(0.999069 8.1916e-05 0)
(1.0002 -6.91231e-05 0)
(0.999051 8.1915e-05 0)
(1.00019 -6.87398e-05 0)
(0.999038 8.21676e-05 0)
(1.00019 -6.80689e-05 0)
(0.999026 8.27254e-05 0)
(1.00018 -6.71497e-05 0)
(0.999009 8.34822e-05 0)
(1.00017 -6.61408e-05 0)
(0.998983 8.42608e-05 0)
(1.00014 -6.523e-05 0)
(0.998948 8.49079e-05 0)
(1.00011 -6.4518e-05 0)
(0.998905 8.53545e-05 0)
(1.00008 -6.40253e-05 0)
(0.99886 8.56454e-05 0)
(1.00004 -6.3666e-05 0)
(0.998816 8.58913e-05 0)
(1.00001 -6.3331e-05 0)
(0.998778 8.61909e-05 0)
(0.99998 -6.29341e-05 0)
(0.998748 8.66255e-05 0)
(0.99996 -6.2394e-05 0)
(0.998721 8.727e-05 0)
(0.999944 -6.16563e-05 0)
(0.998696 8.81413e-05 0)
(0.999926 -6.07537e-05 0)
(0.998667 8.91672e-05 0)
(0.999904 -5.97851e-05 0)
(0.998631 9.02405e-05 0)
(0.999873 -5.88566e-05 0)
(0.998588 9.1269e-05 0)
(0.999836 -5.80384e-05 0)
(0.998538 9.22132e-05 0)
(0.999795 -5.734e-05 0)
(0.998486 9.30981e-05 0)
(0.999754 -5.67107e-05 0)
(0.998436 9.39963e-05 0)
(0.999716 -5.60709e-05 0)
(0.99839 9.49859e-05 0)
(0.999683 -5.53494e-05 0)
(0.998347 9.61291e-05 0)
(0.999654 -5.44992e-05 0)
(0.998307 9.74567e-05 0)
(0.999625 -5.35114e-05 0)
(0.998266 9.89563e-05 0)
(0.999594 -5.24209e-05 0)
(0.99822 0.00010058 0)
(0.999558 -5.12845e-05 0)
(0.998169 0.000102273 0)
(0.999517 -5.01542e-05 0)
(0.998112 0.000103995 0)
(0.999472 -4.90565e-05 0)
(0.998051 0.000105739 0)
(0.999424 -4.7982e-05 0)
(0.997989 0.000107534 0)
(0.999377 -4.68878e-05 0)
(0.997928 0.000109435 0)
(0.999332 -4.5723e-05 0)
(0.997869 0.000111488 0)
(0.999289 -4.44477e-05 0)
(0.99781 0.000113728 0)
(0.999246 -4.30401e-05 0)
(0.997751 0.000116167 0)
(0.999203 -4.15026e-05 0)
(0.997688 0.000118795 0)
(0.999156 -3.9853e-05 0)
(0.997621 0.000121594 0)
(0.999104 -3.8112e-05 0)
(0.997549 0.000124549 0)
(0.999049 -3.62908e-05 0)
(0.997473 0.000127662 0)
(0.998992 -3.43812e-05 0)
(0.997394 0.000130953 0)
(0.998932 -3.23544e-05 0)
(0.997314 0.000134464 0)
(0.998873 -3.01679e-05 0)
(0.997233 0.000138244 0)
(0.998813 -2.77763e-05 0)
(0.99715 0.000142338 0)
(0.998753 -2.51428e-05 0)
(0.997065 0.000146778 0)
(0.99869 -2.22537e-05 0)
(0.996977 0.000151562 0)
(0.998625 -1.91399e-05 0)
(0.996883 0.000156644 0)
(0.998555 -1.58397e-05 0)
(0.996785 0.000162011 0)
(0.998482 -1.23541e-05 0)
(0.996682 0.000167685 0)
(0.998405 -8.64722e-06 0)
(0.996574 0.000173722 0)
(0.998324 -4.66139e-06 0)
(0.996462 0.000180186 0)
(0.998241 -3.43354e-07 0)
(0.996345 0.000187122 0)
(0.998154 4.32515e-06 0)
(0.996223 0.000194538 0)
(0.998064 9.34611e-06 0)
(0.996096 0.000202452 0)
(0.997968 1.47487e-05 0)
(0.995962 0.000210918 0)
(0.997867 2.06001e-05 0)
(0.995819 0.000220032 0)
(0.997758 2.70042e-05 0)
(0.995666 0.000229921 0)
(0.997641 3.40993e-05 0)
(0.995503 0.000240749 0)
(0.997514 4.20575e-05 0)
(0.995328 0.000252715 0)
(0.997376 5.10874e-05 0)
(0.995139 0.000266062 0)
(0.997226 6.14488e-05 0)
(0.994934 0.000281095 0)
(0.99706 7.34926e-05 0)
(0.994709 0.000298259 0)
(0.996874 8.77712e-05 0)
(0.994459 0.000318303 0)
(0.996663 0.000105295 0)
(0.994177 0.000342669 0)
(0.996416 0.000128149 0)
(0.993851 0.000374514 0)
(0.996121 0.000161149 0)
(0.993464 0.000421267 0)
(0.995757 0.000215473 0)
(0.992994 0.000499358 0)
(0.995301 0.000314183 0)
(0.992416 0.000639764 0)
(0.994733 0.000496454 0)
(0.99973 7.95298e-05 0)
(1.00028 -9.30487e-05 0)
(0.999765 7.92781e-05 0)
(1.00027 -8.73374e-05 0)
(0.999776 8.42927e-05 0)
(1.00025 -8.34831e-05 0)
(0.999774 8.55913e-05 0)
(1.00023 -8.26815e-05 0)
(0.99977 8.52896e-05 0)
(1.0002 -8.24886e-05 0)
(0.999768 8.50513e-05 0)
(1.00018 -8.22662e-05 0)
(0.999767 8.47377e-05 0)
(1.00016 -8.23835e-05 0)
(0.999765 8.39999e-05 0)
(1.00014 -8.31693e-05 0)
(0.999766 8.26682e-05 0)
(1.00013 -8.45624e-05 0)
(0.999775 8.09433e-05 0)
(1.00012 -8.61902e-05 0)
(0.999791 7.9282e-05 0)
(1.00013 -8.75811e-05 0)
(0.999812 7.81365e-05 0)
(1.00014 -8.83287e-05 0)
(0.999834 7.77852e-05 0)
(1.00015 -8.82412e-05 0)
(0.999854 7.8316e-05 0)
(1.00015 -8.73142e-05 0)
(0.99987 7.97778e-05 0)
(1.00016 -8.54497e-05 0)
(0.999881 8.21968e-05 0)
(1.00015 -8.27667e-05 0)
(0.999885 8.52903e-05 0)
(1.00014 -7.96901e-05 0)
(0.99988 8.84817e-05 0)
(1.00013 -7.68794e-05 0)
(0.999865 9.11416e-05 0)
(1.0001 -7.48903e-05 0)
(0.999841 9.28082e-05 0)
(1.00007 -7.40533e-05 0)
(0.999812 9.33382e-05 0)
(1.00003 -7.42995e-05 0)
(0.999782 9.29429e-05 0)
(0.999996 -7.5294e-05 0)
(0.999757 9.20094e-05 0)
(0.999969 -7.67073e-05 0)
(0.999738 9.08568e-05 0)
(0.999952 -7.81289e-05 0)
(0.999729 8.99531e-05 0)
(0.999943 -7.9128e-05 0)
(0.999728 8.96807e-05 0)
(0.999942 -7.93403e-05 0)
(0.999731 9.03564e-05 0)
(0.999943 -7.84861e-05 0)
(0.999734 9.21939e-05 0)
(0.999942 -7.65379e-05 0)
(0.999732 9.49399e-05 0)
(0.999934 -7.40192e-05 0)
(0.999721 9.79424e-05 0)
(0.999916 -7.16134e-05 0)
(0.999699 0.000100477 0)
(0.999888 -7.00086e-05 0)
(0.999668 0.000102013 0)
(0.999852 -6.95146e-05 0)
(0.999631 0.000102508 0)
(0.999814 -6.99282e-05 0)
(0.999595 0.000102335 0)
(0.999778 -7.079e-05 0)
(0.999563 0.000101938 0)
(0.99975 -7.17028e-05 0)
(0.99954 0.000101692 0)
(0.999731 -7.22865e-05 0)
(0.999525 0.000102005 0)
(0.99972 -7.2147e-05 0)
(0.999516 0.00010323 0)
(0.999711 -7.10269e-05 0)
(0.999508 0.000105424 0)
(0.999701 -6.91034e-05 0)
(0.999494 0.000108204 0)
(0.999683 -6.69022e-05 0)
(0.999472 0.000110989 0)
(0.999656 -6.50232e-05 0)
(0.999441 0.000113249 0)
(0.99962 -6.3859e-05 0)
(0.999402 0.000114724 0)
(0.999579 -6.35199e-05 0)
(0.99936 0.000115501 0)
(0.999538 -6.37259e-05 0)
(0.999321 0.000115992 0)
(0.999501 -6.40343e-05 0)
(0.999288 0.000116618 0)
(0.999471 -6.40549e-05 0)
(0.999261 0.000117743 0)
(0.999447 -6.3471e-05 0)
(0.99924 0.000119611 0)
(0.999426 -6.21489e-05 0)
(0.999219 0.000122206 0)
(0.999404 -6.02551e-05 0)
(0.999195 0.000125241 0)
(0.999376 -5.81567e-05 0)
(0.999164 0.000128322 0)
(0.99934 -5.62453e-05 0)
(0.999126 0.000131112 0)
(0.999298 -5.47779e-05 0)
(0.999082 0.000133458 0)
(0.999251 -5.37855e-05 0)
(0.999035 0.00013545 0)
(0.999204 -5.30777e-05 0)
(0.998991 0.000137357 0)
(0.999161 -5.23487e-05 0)
(0.99895 0.000139492 0)
(0.999122 -5.13182e-05 0)
(0.998914 0.000142088 0)
(0.999086 -4.98137e-05 0)
(0.998881 0.000145245 0)
(0.999051 -4.78219e-05 0)
(0.998846 0.000148891 0)
(0.999014 -4.54914e-05 0)
(0.998808 0.00015283 0)
(0.998971 -4.30482e-05 0)
(0.998763 0.000156839 0)
(0.998922 -4.06949e-05 0)
(0.998714 0.000160762 0)
(0.998869 -3.85322e-05 0)
(0.998661 0.000164567 0)
(0.998814 -3.65236e-05 0)
(0.998607 0.000168361 0)
(0.998758 -3.45189e-05 0)
(0.998554 0.000172325 0)
(0.998705 -3.2327e-05 0)
(0.998504 0.000176647 0)
(0.998653 -2.9788e-05 0)
(0.998454 0.000181452 0)
(0.998602 -2.68306e-05 0)
(0.998404 0.000186762 0)
(0.998549 -2.3484e-05 0)
(0.998352 0.000192515 0)
(0.998492 -1.98409e-05 0)
(0.998295 0.000198609 0)
(0.998431 -1.60064e-05 0)
(0.998234 0.000204958 0)
(0.998365 -1.20453e-05 0)
(0.998169 0.000211537 0)
(0.998297 -7.94809e-06 0)
(0.998101 0.000218401 0)
(0.998226 -3.62929e-06 0)
(0.998033 0.000225667 0)
(0.998155 1.04243e-06 0)
(0.997964 0.000233481 0)
(0.998083 6.19983e-06 0)
(0.997895 0.000241964 0)
(0.99801 1.19359e-05 0)
(0.997823 0.000251186 0)
(0.997935 1.82764e-05 0)
(0.997749 0.000261141 0)
(0.997856 2.51748e-05 0)
(0.99767 0.000271769 0)
(0.997772 3.25741e-05 0)
(0.997587 0.000283045 0)
(0.997684 4.04695e-05 0)
(0.9975 0.000295005 0)
(0.997592 4.89234e-05 0)
(0.997409 0.000307753 0)
(0.997495 5.80558e-05 0)
(0.997314 0.00032143 0)
(0.997395 6.79988e-05 0)
(0.997215 0.000336164 0)
(0.997291 7.88452e-05 0)
(0.997113 0.000352036 0)
(0.997183 9.06695e-05 0)
(0.997005 0.000369149 0)
(0.997069 0.000103588 0)
(0.996892 0.00038766 0)
(0.996948 0.000117781 0)
(0.996771 0.000407799 0)
(0.996819 0.000133507 0)
(0.996641 0.00042988 0)
(0.996681 0.000151111 0)
(0.996502 0.000454311 0)
(0.996533 0.000171041 0)
(0.996353 0.000481614 0)
(0.996374 0.00019387 0)
(0.996191 0.000512458 0)
(0.996201 0.000220355 0)
(0.996015 0.000547751 0)
(0.996012 0.000251565 0)
(0.995822 0.000588833 0)
(0.995804 0.000289182 0)
(0.995608 0.00063794 0)
(0.995572 0.000336215 0)
(0.995366 0.000699282 0)
(0.995309 0.000398559 0)
(0.995091 0.000781189 0)
(0.99501 0.000487771 0)
(0.994779 0.000899521 0)
(0.994674 0.000625064 0)
(0.994431 0.00108202 0)
(0.994306 0.000845591 0)
(0.994059 0.00137178 0)
(0.99392 0.00119997 0)
(0.999892 6.29133e-05 0)
(1.00011 -6.80998e-05 0)
(0.999933 6.34333e-05 0)
(1.00011 -6.33231e-05 0)
(0.999947 6.61182e-05 0)
(1.00009 -6.04011e-05 0)
(0.999948 6.62484e-05 0)
(1.00006 -5.93083e-05 0)
(0.999946 6.57761e-05 0)
(1.00003 -5.82392e-05 0)
(0.999947 6.55328e-05 0)
(1 -5.73348e-05 0)
(0.999948 6.47542e-05 0)
(0.999981 -5.74816e-05 0)
(0.999949 6.27971e-05 0)
(0.999959 -5.89857e-05 0)
(0.999953 5.96378e-05 0)
(0.999944 -6.15533e-05 0)
(0.999963 5.5862e-05 0)
(0.999939 -6.43926e-05 0)
(0.999981 5.23398e-05 0)
(0.999941 -6.66147e-05 0)
(1 4.9937e-05 0)
(0.999948 -6.7453e-05 0)
(1.00003 4.91904e-05 0)
(0.999956 -6.66265e-05 0)
(1.00005 5.0209e-05 0)
(0.999962 -6.40816e-05 0)
(1.00007 5.29699e-05 0)
(0.999965 -5.99144e-05 0)
(1.00008 5.72887e-05 0)
(0.999962 -5.44878e-05 0)
(1.00009 6.26219e-05 0)
(0.999952 -4.85451e-05 0)
(1.00008 6.79612e-05 0)
(0.999934 -4.3232e-05 0)
(1.00007 7.21734e-05 0)
(0.999906 -3.95758e-05 0)
(1.00004 7.44207e-05 0)
(0.999872 -3.81511e-05 0)
(1.00001 7.44031e-05 0)
(0.999836 -3.89447e-05 0)
(0.999981 7.24506e-05 0)
(0.999803 -4.13629e-05 0)
(0.999955 6.93439e-05 0)
(0.999777 -4.45411e-05 0)
(0.999936 6.5994e-05 0)
(0.999761 -4.74687e-05 0)
(0.999926 6.3409e-05 0)
(0.999754 -4.92255e-05 0)
(0.999924 6.2402e-05 0)
(0.999754 -4.91368e-05 0)
(0.999926 6.34814e-05 0)
(0.999758 -4.68936e-05 0)
(0.999929 6.66793e-05 0)
(0.999759 -4.27796e-05 0)
(0.999925 7.13852e-05 0)
(0.999753 -3.7749e-05 0)
(0.999912 7.63822e-05 0)
(0.999736 -3.30855e-05 0)
(0.999888 8.04014e-05 0)
(0.99971 -2.99689e-05 0)
(0.999854 8.25009e-05 0)
(0.999676 -2.90036e-05 0)
(0.999815 8.24662e-05 0)
(0.999639 -2.99644e-05 0)
(0.999776 8.09323e-05 0)
(0.999606 -3.19454e-05 0)
(0.999742 7.89031e-05 0)
(0.999581 -3.39222e-05 0)
(0.999716 7.73773e-05 0)
(0.999565 -3.49449e-05 0)
(0.9997 7.72183e-05 0)
(0.999556 -3.43117e-05 0)
(0.999689 7.89089e-05 0)
(0.999551 -3.18111e-05 0)
(0.999678 8.23302e-05 0)
(0.999543 -2.79124e-05 0)
(0.999662 8.67342e-05 0)
(0.999529 -2.35613e-05 0)
(0.999637 9.10484e-05 0)
(0.999504 -1.98265e-05 0)
(0.999602 9.42965e-05 0)
(0.999471 -1.75131e-05 0)
(0.99956 9.59524e-05 0)
(0.999432 -1.68471e-05 0)
(0.999515 9.61472e-05 0)
(0.999393 -1.729e-05 0)
(0.999473 9.56868e-05 0)
(0.999359 -1.79489e-05 0)
(0.999437 9.54591e-05 0)
(0.999332 -1.79699e-05 0)
(0.999408 9.62513e-05 0)
(0.999311 -1.67018e-05 0)
(0.999384 9.85052e-05 0)
(0.999294 -1.39813e-05 0)
(0.999362 0.000102094 0)
(0.999275 -1.01969e-05 0)
(0.999335 0.000106431 0)
(0.99925 -6.06817e-06 0)
(0.999301 0.000110736 0)
(0.999217 -2.35858e-06 0)
(0.999259 0.00011434 0)
(0.999177 4.28704e-07 0)
(0.999212 0.000116962 0)
(0.999133 2.25244e-06 0)
(0.999163 0.000118796 0)
(0.999089 3.51263e-06 0)
(0.999115 0.00012038 0)
(0.999048 4.81489e-06 0)
(0.999073 0.00012233 0)
(0.999012 6.72423e-06 0)
(0.999034 0.000125114 0)
(0.99898 9.56936e-06 0)
(0.998998 0.000128898 0)
(0.998948 1.3341e-05 0)
(0.998961 0.00013351 0)
(0.998913 1.77272e-05 0)
(0.99892 0.000138541 0)
(0.998873 2.22685e-05 0)
(0.998873 0.000143535 0)
(0.998827 2.65588e-05 0)
(0.998821 0.000148181 0)
(0.998776 3.04114e-05 0)
(0.998765 0.000152435 0)
(0.998723 3.39197e-05 0)
(0.998709 0.000156511 0)
(0.998671 3.73873e-05 0)
(0.998654 0.000160768 0)
(0.99862 4.11876e-05 0)
(0.998601 0.000165562 0)
(0.998572 4.56206e-05 0)
(0.99855 0.000171111 0)
(0.998523 5.08015e-05 0)
(0.998497 0.00017743 0)
(0.998473 5.66495e-05 0)
(0.998443 0.000184366 0)
(0.998419 6.29576e-05 0)
(0.998383 0.000191688 0)
(0.99836 6.94995e-05 0)
(0.99832 0.000199206 0)
(0.998297 7.61371e-05 0)
(0.998253 0.000206855 0)
(0.998231 8.28826e-05 0)
(0.998183 0.000214726 0)
(0.998164 8.98922e-05 0)
(0.998113 0.000223027 0)
(0.998096 9.73994e-05 0)
(0.998042 0.000232 0)
(0.998027 0.000105626 0)
(0.997971 0.000241833 0)
(0.997957 0.000114711 0)
(0.997898 0.000252615 0)
(0.997885 0.000124686 0)
(0.997821 0.000264335 0)
(0.997809 0.000135511 0)
(0.997741 0.000276949 0)
(0.997728 0.000147136 0)
(0.997657 0.000290422 0)
(0.997643 0.000159548 0)
(0.997567 0.000304779 0)
(0.997554 0.000172814 0)
(0.997475 0.000320136 0)
(0.997461 0.000187087 0)
(0.997378 0.000336683 0)
(0.997365 0.000202572 0)
(0.997278 0.000354634 0)
(0.997265 0.000219478 0)
(0.997175 0.000374202 0)
(0.997161 0.000238016 0)
(0.997066 0.000395611 0)
(0.997051 0.000258419 0)
(0.996952 0.000419116 0)
(0.996935 0.000280965 0)
(0.99683 0.000445041 0)
(0.996811 0.00030602 0)
(0.996701 0.000473815 0)
(0.996679 0.00033408 0)
(0.996562 0.000506022 0)
(0.996537 0.000365818 0)
(0.996414 0.000542454 0)
(0.996385 0.000402149 0)
(0.996255 0.000584189 0)
(0.996221 0.000444345 0)
(0.996082 0.000632762 0)
(0.996043 0.00049427 0)
(0.995895 0.000690498 0)
(0.995849 0.000554846 0)
(0.995691 0.000761133 0)
(0.995637 0.000630862 0)
(0.995467 0.000850813 0)
(0.995405 0.000730093 0)
(0.995225 0.000969196 0)
(0.995156 0.000864171 0)
(0.994968 0.00112982 0)
(0.994895 0.00104823 0)
(0.994703 0.00134884 0)
(0.994631 0.00129862 0)
(0.99444 0.00164182 0)
(0.994376 0.00162909 0)
(0.999913 4.66091e-05 0)
(1.00009 -3.63212e-05 0)
(0.999955 4.85997e-05 0)
(1.00009 -3.56944e-05 0)
(0.99997 4.55786e-05 0)
(1.00006 -3.66725e-05 0)
(0.999972 4.33741e-05 0)
(1.00003 -3.58695e-05 0)
(0.999972 4.31315e-05 0)
(1 -3.37321e-05 0)
(0.999975 4.35037e-05 0)
(0.999976 -3.20717e-05 0)
(0.999978 4.2596e-05 0)
(0.99995 -3.24931e-05 0)
(0.99998 3.95136e-05 0)
(0.999926 -3.514e-05 0)
(0.999985 3.45755e-05 0)
(0.999909 -3.9256e-05 0)
(0.999998 2.89167e-05 0)
(0.999901 -4.35627e-05 0)
(1.00002 2.3843e-05 0)
(0.999902 -4.67166e-05 0)
(1.00004 2.06487e-05 0)
(0.999908 -4.76162e-05 0)
(1.00007 2.00789e-05 0)
(0.999915 -4.58703e-05 0)
(1.0001 2.22817e-05 0)
(0.999919 -4.15014e-05 0)
(1.00012 2.70497e-05 0)
(0.999921 -3.48634e-05 0)
(1.00013 3.38815e-05 0)
(0.999917 -2.66471e-05 0)
(1.00014 4.18894e-05 0)
(0.999906 -1.79686e-05 0)
(1.00013 4.96666e-05 0)
(0.999885 -1.04321e-05 0)
(1.00012 5.55387e-05 0)
(0.999856 -5.59152e-06 0)
(1.0001 5.82398e-05 0)
(0.99982 -4.26624e-06 0)
(1.00007 5.74548e-05 0)
(0.999782 -6.28405e-06 0)
(1.00004 5.37752e-05 0)
(0.999748 -1.07228e-05 0)
(1.00001 4.83925e-05 0)
(0.999721 -1.61363e-05 0)
(0.999992 4.29289e-05 0)
(0.999704 -2.08399e-05 0)
(0.999983 3.90033e-05 0)
(0.999698 -2.33597e-05 0)
(0.999982 3.78759e-05 0)
(0.999699 -2.27124e-05 0)
(0.999986 4.01557e-05 0)
(0.999703 -1.87513e-05 0)
(0.999989 4.54924e-05 0)
(0.999705 -1.22577e-05 0)
(0.999986 5.27242e-05 0)
(0.999699 -4.68636e-06 0)
(0.999973 6.01229e-05 0)
(0.999682 2.00241e-06 0)
(0.999948 6.57482e-05 0)
(0.999655 6.15764e-06 0)
(0.999913 6.8333e-05 0)
(0.99962 6.99745e-06 0)
(0.999872 6.76947e-05 0)
(0.999584 4.97856e-06 0)
(0.999832 6.48138e-05 0)
(0.999551 1.44563e-06 0)
(0.999798 6.12619e-05 0)
(0.999526 -1.90897e-06 0)
(0.999772 5.8736e-05 0)
(0.999511 -3.50638e-06 0)
(0.999756 5.85774e-05 0)
(0.999504 -2.33688e-06 0)
(0.999745 6.13437e-05 0)
(0.999501 1.62312e-06 0)
(0.999734 6.6563e-05 0)
(0.999495 7.4963e-06 0)
(0.999718 7.3044e-05 0)
(0.999481 1.38415e-05 0)
(0.999691 7.91845e-05 0)
(0.999456 1.90721e-05 0)
(0.999655 8.35495e-05 0)
(0.999423 2.20543e-05 0)
(0.999611 8.546e-05 0)
(0.999385 2.26042e-05 0)
(0.999565 8.52468e-05 0)
(0.999346 2.15584e-05 0)
(0.999521 8.40995e-05 0)
(0.999313 2.02723e-05 0)
(0.999484 8.34127e-05 0)
(0.999288 2.00894e-05 0)
(0.999455 8.43785e-05 0)
(0.999269 2.19369e-05 0)
(0.999431 8.75489e-05 0)
(0.999254 2.59262e-05 0)
(0.999408 9.2624e-05 0)
(0.999236 3.14072e-05 0)
(0.99938 9.86866e-05 0)
(0.999212 3.72834e-05 0)
(0.999345 0.000104559 0)
(0.99918 4.24183e-05 0)
(0.999302 0.00010926 0)
(0.999141 4.60975e-05 0)
(0.999253 0.000112427 0)
(0.999097 4.83353e-05 0)
(0.999202 0.000114424 0)
(0.999054 4.9773e-05 0)
(0.999154 0.000116077 0)
(0.999015 5.13346e-05 0)
(0.99911 0.00011832 0)
(0.99898 5.387e-05 0)
(0.999071 0.000121835 0)
(0.998949 5.78308e-05 0)
(0.999035 0.000126813 0)
(0.998919 6.31402e-05 0)
(0.998998 0.000132942 0)
(0.998886 6.92955e-05 0)
(0.998956 0.000139584 0)
(0.998847 7.55913e-05 0)
(0.998907 0.000146046 0)
(0.998802 8.14255e-05 0)
(0.998854 0.000151885 0)
(0.998752 8.65563e-05 0)
(0.998797 0.000157079 0)
(0.9987 9.11726e-05 0)
(0.998739 0.000161994 0)
(0.998648 9.57608e-05 0)
(0.998684 0.00016718 0)
(0.998599 0.000100878 0)
(0.998631 0.000173148 0)
(0.998552 0.000106935 0)
(0.998579 0.000180179 0)
(0.998505 0.000114064 0)
(0.998527 0.000188256 0)
(0.998456 0.000122111 0)
(0.998471 0.000197119 0)
(0.998404 0.000130744 0)
(0.998412 0.00020641 0)
(0.998346 0.000139622 0)
(0.998347 0.000215845 0)
(0.998284 0.000148549 0)
(0.998279 0.000225343 0)
(0.998219 0.000157564 0)
(0.998209 0.000235058 0)
(0.998153 0.000166912 0)
(0.998139 0.000245303 0)
(0.998086 0.000176938 0)
(0.998068 0.000256423 0)
(0.998019 0.000187954 0)
(0.997997 0.000268674 0)
(0.997951 0.000200139 0)
(0.997924 0.00028216 0)
(0.99788 0.000213526 0)
(0.997848 0.000296855 0)
(0.997806 0.000228042 0)
(0.997768 0.000312668 0)
(0.997727 0.000243599 0)
(0.997684 0.000329537 0)
(0.997644 0.000260172 0)
(0.997595 0.000347493 0)
(0.997556 0.000277855 0)
(0.997503 0.000366696 0)
(0.997466 0.000296862 0)
(0.997407 0.000387409 0)
(0.997372 0.000317488 0)
(0.997309 0.00040995 0)
(0.997274 0.000340058 0)
(0.997206 0.000434649 0)
(0.997173 0.000364896 0)
(0.9971 0.000461831 0)
(0.997066 0.000392331 0)
(0.996987 0.000491839 0)
(0.996954 0.000422728 0)
(0.996869 0.000525082 0)
(0.996834 0.000456549 0)
(0.996743 0.000562104 0)
(0.996707 0.00049443 0)
(0.996609 0.000603658 0)
(0.996571 0.000537262 0)
(0.996466 0.000650801 0)
(0.996426 0.000586288 0)
(0.996314 0.00070501 0)
(0.996271 0.00064326 0)
(0.996152 0.000768383 0)
(0.996106 0.000710695 0)
(0.995979 0.000843952 0)
(0.99593 0.000792224 0)
(0.995795 0.000936043 0)
(0.995743 0.000892914 0)
(0.995601 0.00105046 0)
(0.995548 0.00101923 0)
(0.9954 0.0011942 0)
(0.995347 0.00117845 0)
(0.995197 0.00137455 0)
(0.995147 0.00137759 0)
(0.994997 0.00159786 0)
(0.994954 0.00162192 0)
(0.994807 0.00186799 0)
(0.994772 0.00191346 0)
(0.999898 3.31711e-05 0)
(1.0001 -1.22059e-05 0)
(0.999934 3.75916e-05 0)
(1.0001 -1.37817e-05 0)
(0.999946 3.06067e-05 0)
(1.00008 -1.8395e-05 0)
(0.999948 2.59292e-05 0)
(1.00005 -1.86511e-05 0)
(0.999949 2.57776e-05 0)
(1.00002 -1.57358e-05 0)
(0.999951 2.69523e-05 0)
(0.999993 -1.34707e-05 0)
(0.999954 2.61267e-05 0)
(0.999966 -1.43659e-05 0)
(0.999955 2.19863e-05 0)
(0.999941 -1.84582e-05 0)
(0.999961 1.53486e-05 0)
(0.999923 -2.43566e-05 0)
(0.999974 7.96243e-06 0)
(0.999915 -3.02212e-05 0)
(0.999996 1.71672e-06 0)
(0.999916 -3.4171e-05 0)
(1.00002 -1.79526e-06 0)
(0.999921 -3.49689e-05 0)
(1.00005 -1.71571e-06 0)
(0.999928 -3.21332e-05 0)
(1.00008 2.10617e-06 0)
(0.999932 -2.57815e-05 0)
(1.0001 9.30903e-06 0)
(0.999933 -1.65096e-05 0)
(1.00012 1.9023e-05 0)
(0.999928 -5.42634e-06 0)
(1.00013 2.98718e-05 0)
(0.999916 5.80976e-06 0)
(1.00012 3.99579e-05 0)
(0.999893 1.51279e-05 0)
(1.00011 4.71802e-05 0)
(0.999861 2.06262e-05 0)
(1.00009 5.003e-05 0)
(0.999822 2.14074e-05 0)
(1.00006 4.82989e-05 0)
(0.999782 1.78768e-05 0)
(1.00003 4.28427e-05 0)
(0.999746 1.12975e-05 0)
(1 3.53171e-05 0)
(0.999718 3.69657e-06 0)
(0.999986 2.80103e-05 0)
(0.9997 -2.56693e-06 0)
(0.99998 2.31816e-05 0)
(0.999694 -5.47602e-06 0)
(0.999981 2.24684e-05 0)
(0.999695 -3.87085e-06 0)
(0.999988 2.6413e-05 0)
(0.9997 2.09512e-06 0)
(0.999993 3.42288e-05 0)
(0.999701 1.11075e-05 0)
(0.999992 4.41226e-05 0)
(0.999694 2.10512e-05 0)
(0.999979 5.37242e-05 0)
(0.999676 2.93831e-05 0)
(0.999954 6.062e-05 0)
(0.999646 3.41147e-05 0)
(0.999918 6.33761e-05 0)
(0.999609 3.45006e-05 0)
(0.999876 6.20046e-05 0)
(0.999571 3.12667e-05 0)
(0.999836 5.781e-05 0)
(0.999537 2.61973e-05 0)
(0.999802 5.29508e-05 0)
(0.999512 2.16606e-05 0)
(0.999778 4.97889e-05 0)
(0.999498 1.98035e-05 0)
(0.999764 5.00626e-05 0)
(0.999492 2.17986e-05 0)
(0.999755 5.4255e-05 0)
(0.99949 2.74179e-05 0)
(0.999746 6.15277e-05 0)
(0.999484 3.53413e-05 0)
(0.99973 7.01549e-05 0)
(0.999469 4.35551e-05 0)
(0.999703 7.80034e-05 0)
(0.999444 4.9986e-05 0)
(0.999666 8.32815e-05 0)
(0.999409 5.33411e-05 0)
(0.999621 8.53082e-05 0)
(0.999369 5.36119e-05 0)
(0.999573 8.47109e-05 0)
(0.99933 5.19446e-05 0)
(0.99953 8.30389e-05 0)
(0.999297 5.01483e-05 0)
(0.999494 8.2187e-05 0)
(0.999273 5.00229e-05 0)
(0.999466 8.36806e-05 0)
(0.999255 5.26609e-05 0)
(0.999444 8.80744e-05 0)
(0.999241 5.8061e-05 0)
(0.999421 9.48545e-05 0)
(0.999224 6.52793e-05 0)
(0.999394 0.000102742 0)
(0.9992 7.28237e-05 0)
(0.999358 0.000110177 0)
(0.999167 7.92245e-05 0)
(0.999314 0.000115941 0)
(0.999127 8.36455e-05 0)
(0.999264 0.000119664 0)
(0.999082 8.62057e-05 0)
(0.999212 0.000121899 0)
(0.999039 8.77966e-05 0)
(0.999164 0.00012378 0)
(0.999 8.96762e-05 0)
(0.999121 0.000126555 0)
(0.998967 9.29534e-05 0)
(0.999083 0.000131082 0)
(0.998938 9.8156e-05 0)
(0.999048 0.000137527 0)
(0.998909 0.000105104 0)
(0.99901 0.000145407 0)
(0.998876 0.000113071 0)
(0.998968 0.000153832 0)
(0.998837 0.0001211 0)
(0.99892 0.000161886 0)
(0.998792 0.000128418 0)
(0.998865 0.000169027 0)
(0.998741 0.000134769 0)
(0.998808 0.000175295 0)
(0.998689 0.000140461 0)
(0.99875 0.000181221 0)
(0.998639 0.000146174 0)
(0.998695 0.000187555 0)
(0.99859 0.000152651 0)
(0.998642 0.000194959 0)
(0.998545 0.000160407 0)
(0.998591 0.00020376 0)
(0.998499 0.000169566 0)
(0.998539 0.000213887 0)
(0.998451 0.00017988 0)
(0.998484 0.000224954 0)
(0.998399 0.000190876 0)
(0.998424 0.000236466 0)
(0.998342 0.000202098 0)
(0.99836 0.000248058 0)
(0.998281 0.00021331 0)
(0.998292 0.000259653 0)
(0.998216 0.000224597 0)
(0.998222 0.000271484 0)
(0.998151 0.000236308 0)
(0.998152 0.000283979 0)
(0.998085 0.000248905 0)
(0.998082 0.00029759 0)
(0.99802 0.000262785 0)
(0.998012 0.000312633 0)
(0.997953 0.000278163 0)
(0.99794 0.000329217 0)
(0.997884 0.00029505 0)
(0.997865 0.000347276 0)
(0.997812 0.000313325 0)
(0.997786 0.000366669 0)
(0.997734 0.000332855 0)
(0.997703 0.000387302 0)
(0.997653 0.000353607 0)
(0.997615 0.000409222 0)
(0.997567 0.000375714 0)
(0.997524 0.000432646 0)
(0.997479 0.000399463 0)
(0.997431 0.000457925 0)
(0.997387 0.000425251 0)
(0.997334 0.000485482 0)
(0.997293 0.000453507 0)
(0.997235 0.000515745 0)
(0.997195 0.000484646 0)
(0.997131 0.000549119 0)
(0.997092 0.000519068 0)
(0.997023 0.000586012 0)
(0.996984 0.000557201 0)
(0.996908 0.000626898 0)
(0.99687 0.000599585 0)
(0.996787 0.000672411 0)
(0.996749 0.000646971 0)
(0.99666 0.000723446 0)
(0.996621 0.000700417 0)
(0.996525 0.000781254 0)
(0.996486 0.000761392 0)
(0.996383 0.000847555 0)
(0.996344 0.000831886 0)
(0.996235 0.000924637 0)
(0.996196 0.000914503 0)
(0.996081 0.00101543 0)
(0.996042 0.00101248 0)
(0.995921 0.00112343 0)
(0.995883 0.00112951 0)
(0.995759 0.00125248 0)
(0.995723 0.00126943 0)
(0.995596 0.00140626 0)
(0.995564 0.00143572 0)
(0.995436 0.00158791 0)
(0.995411 0.00163097 0)
(0.995285 0.0017994 0)
(0.995268 0.00185646 0)
(0.995144 0.00204118 0)
(0.995137 0.00211171 0)
(0.999878 2.33313e-05 0)
(1.00012 9.54049e-07 0)
(0.999903 3.0694e-05 0)
(1.00012 1.12751e-06 0)
(0.999912 2.43019e-05 0)
(1.0001 -4.21785e-06 0)
(0.999912 1.81314e-05 0)
(1.00007 -6.19286e-06 0)
(0.999911 1.6813e-05 0)
(1.00005 -4.01796e-06 0)
(0.999911 1.77895e-05 0)
(1.00002 -2.14706e-06 0)
(0.999911 1.65531e-05 0)
(0.999998 -3.75825e-06 0)
(0.99991 1.14032e-05 0)
(0.999973 -9.3861e-06 0)
(0.999914 3.13413e-06 0)
(0.999956 -1.70796e-05 0)
(0.999926 -5.86685e-06 0)
(0.999949 -2.43434e-05 0)
(0.999948 -1.30451e-05 0)
(0.999951 -2.88662e-05 0)
(0.999977 -1.66147e-05 0)
(0.999958 -2.93265e-05 0)
(1.00001 -1.56513e-05 0)
(0.999966 -2.52073e-05 0)
(1.00004 -1.00263e-05 0)
(0.999971 -1.67073e-05 0)
(1.00006 -2.35152e-07 0)
(0.999973 -4.6537e-06 0)
(1.00008 1.24835e-05 0)
(0.999968 9.34049e-06 0)
(1.00009 2.61181e-05 0)
(0.999954 2.29679e-05 0)
(1.00008 3.82207e-05 0)
(0.99993 3.37368e-05 0)
(1.00007 4.64004e-05 0)
(0.999895 3.95858e-05 0)
(1.00004 4.91212e-05 0)
(0.999853 3.96686e-05 0)
(1.00001 4.62735e-05 0)
(0.999811 3.45517e-05 0)
(0.999984 3.89902e-05 0)
(0.999772 2.5926e-05 0)
(0.99996 2.94998e-05 0)
(0.999743 1.64421e-05 0)
(0.999945 2.0689e-05 0)
(0.999726 9.04547e-06 0)
(0.999941 1.53495e-05 0)
(0.99972 6.16646e-06 0)
(0.999946 1.53477e-05 0)
(0.999722 8.9809e-06 0)
(0.999956 2.10635e-05 0)
(0.999727 1.70675e-05 0)
(0.999964 3.13176e-05 0)
(0.999728 2.85516e-05 0)
(0.999964 4.367e-05 0)
(0.99972 4.05884e-05 0)
(0.999952 5.50656e-05 0)
(0.999699 5.02157e-05 0)
(0.999926 6.28473e-05 0)
(0.999666 5.52656e-05 0)
(0.999889 6.55336e-05 0)
(0.999626 5.50953e-05 0)
(0.999847 6.33215e-05 0)
(0.999584 5.06753e-05 0)
(0.999807 5.78906e-05 0)
(0.999549 4.43132e-05 0)
(0.999775 5.20016e-05 0)
(0.999524 3.89823e-05 0)
(0.999753 4.85531e-05 0)
(0.999511 3.72406e-05 0)
(0.999742 4.95184e-05 0)
(0.999506 4.02944e-05 0)
(0.999736 5.52573e-05 0)
(0.999504 4.77024e-05 0)
(0.999729 6.45965e-05 0)
(0.999498 5.76575e-05 0)
(0.999714 7.52388e-05 0)
(0.999482 6.7578e-05 0)
(0.999688 8.45457e-05 0)
(0.999454 7.50183e-05 0)
(0.999649 9.05207e-05 0)
(0.999416 7.86253e-05 0)
(0.999603 9.25577e-05 0)
(0.999373 7.858e-05 0)
(0.999556 9.1556e-05 0)
(0.999333 7.63695e-05 0)
(0.999513 8.94651e-05 0)
(0.9993 7.42533e-05 0)
(0.999479 8.86292e-05 0)
(0.999276 7.44059e-05 0)
(0.999454 9.08195e-05 0)
(0.99926 7.80243e-05 0)
(0.999433 9.65716e-05 0)
(0.999247 8.49814e-05 0)
(0.999413 0.000105141 0)
(0.99923 9.40013e-05 0)
(0.999386 0.00011485 0)
(0.999205 0.00010318 0)
(0.99935 0.000123769 0)
(0.999171 0.000110767 0)
(0.999305 0.000130509 0)
(0.999128 0.000115874 0)
(0.999254 0.000134749 0)
(0.999083 0.000118741 0)
(0.999203 0.00013724 0)
(0.999039 0.000120544 0)
(0.999155 0.000139447 0)
(0.999 0.000122871 0)
(0.999113 0.000142911 0)
(0.998968 0.000127054 0)
(0.999077 0.000148623 0)
(0.99894 0.000133665 0)
(0.999044 0.00015671 0)
(0.998911 0.000142399 0)
(0.999008 0.000166485 0)
(0.998879 0.000152272 0)
(0.998966 0.000176782 0)
(0.998839 0.00016207 0)
(0.998917 0.000186475 0)
(0.998793 0.000170879 0)
(0.998862 0.00019496 0)
(0.998742 0.000178454 0)
(0.998804 0.000202357 0)
(0.99869 0.000185247 0)
(0.998747 0.000209381 0)
(0.998639 0.000192145 0)
(0.998692 0.000216993 0)
(0.998592 0.000200078 0)
(0.998641 0.000226 0)
(0.998547 0.000209654 0)
(0.998592 0.000236766 0)
(0.998503 0.000220976 0)
(0.998541 0.000249137 0)
(0.998456 0.000233667 0)
(0.998487 0.000262579 0)
(0.998404 0.000247106 0)
(0.998428 0.000276459 0)
(0.998347 0.000260723 0)
(0.998363 0.000290341 0)
(0.998286 0.000274261 0)
(0.998296 0.00030417 0)
(0.998222 0.000287867 0)
(0.998227 0.000318275 0)
(0.998157 0.000302008 0)
(0.998158 0.000333211 0)
(0.998093 0.000317267 0)
(0.998089 0.000349531 0)
(0.998029 0.000334121 0)
(0.998021 0.000367602 0)
(0.997965 0.000352799 0)
(0.99795 0.000387518 0)
(0.997897 0.000373278 0)
(0.997877 0.000409161 0)
(0.997826 0.000395374 0)
(0.9978 0.000432329 0)
(0.997751 0.000418907 0)
(0.997718 0.000456901 0)
(0.997671 0.000443843 0)
(0.997632 0.000482946 0)
(0.997588 0.000470358 0)
(0.997543 0.000510748 0)
(0.997502 0.000498827 0)
(0.997452 0.000540752 0)
(0.997413 0.00052974 0)
(0.997359 0.000573471 0)
(0.997323 0.000563609 0)
(0.997263 0.000609404 0)
(0.997229 0.00060091 0)
(0.997164 0.000649006 0)
(0.997131 0.000642083 0)